# vtk DataFile Version 4.0
vtk output
ASCII
DATASET POLYDATA
POINTS 486 float
-0.5 -0.5 -0.5 -0.5 -0.5 0.5 -0.5 0.5 -0.5 
-0.5 0.5 0.5 0.5 -0.5 -0.5 0.5 -0.5 0.5 
0.5 0.5 -0.5 0.5 0.5 0.5 -0.5 -0.5 -0.5 
-0.5 -0.5 0.5 0.5 -0.5 -0.5 0.5 -0.5 0.5 
-0.5 0.5 -0.5 -0.5 0.5 0.5 0.5 0.5 -0.5 
0.5 0.5 0.5 -0.5 -0.5 -0.5 0.5 -0.5 -0.5 
-0.5 0.5 -0.5 0.5 0.5 -0.5 -0.5 -0.5 0.5 
0.5 -0.5 0.5 -0.5 0.5 0.5 0.5 0.5 0.5 
-0.5 0 -0.5 -0.5 -0.5 0 -0.5 0 0 
-0.5 0 0.5 -0.5 0.5 0 0.5 -0.5 0 
0.5 0 -0.5 0.5 0 0 0.5 0.5 0 
0.5 0 0.5 -0.5 -0.5 0 0 -0.5 -0.5 
0 -0.5 0 0.5 -0.5 0 0 -0.5 0.5 
0 0.5 -0.5 -0.5 0.5 0 0 0.5 0 
0 0.5 0.5 0.5 0.5 0 0 -0.5 -0.5 
-0.5 0 -0.5 0 0 -0.5 0 0.5 -0.5 
0.5 0 -0.5 -0.5 0 0.5 0 -0.5 0.5 
0 0 0.5 0.5 0 0.5 0 0.5 0.5 
-0.5 -0.25 -0.5 -0.5 -0.5 -0.25 -0.5 -0.25 -0.25 
-0.5 -0.25 0 -0.5 -0.5 0.25 -0.5 -0.25 0.25 
-0.5 0 -0.25 -0.5 0.25 -0.25 -0.5 0.25 -0.5 
-0.5 0.25 0.5 -0.5 0.5 0.25 -0.5 0.25 0.25 
-0.5 0.25 0 -0.5 0.5 -0.25 -0.5 0 0.25 
-0.5 -0.25 0.5 0.5 -0.5 -0.25 0.5 -0.25 -0.5 
0.5 -0.25 -0.25 0.5 0 -0.25 0.5 0.25 -0.5 
0.5 0.25 -0.25 0.5 -0.25 0 0.5 -0.25 0.25 
0.5 -0.5 0.25 0.5 0.5 0.25 0.5 0.25 0.5 
0.5 0.25 0.25 0.5 0 0.25 0.5 -0.25 0.5 
0.5 0.25 0 0.5 0.5 -0.25 -0.5 -0.5 -0.25 
-0.25 -0.5 -0.5 -0.25 -0.5 -0.25 0 -0.5 -0.25 
0.25 -0.5 -0.5 0.25 -0.5 -0.25 -0.25 -0.5 0 
-0.25 -0.5 0.25 -0.5 -0.5 0.25 0.5 -0.5 0.25 
0.25 -0.5 0.5 0.25 -0.5 0.25 0 -0.5 0.25 
-0.25 -0.5 0.5 0.25 -0.5 0 0.5 -0.5 -0.25 
-0.25 0.5 -0.5 -0.5 0.5 -0.25 -0.25 0.5 -0.25 
-0.25 0.5 0 -0.5 0.5 0.25 -0.25 0.5 0.25 
0 0.5 -0.25 0.25 0.5 -0.25 0.25 0.5 -0.5 
0.25 0.5 0.5 0.5 0.5 0.25 0.25 0.5 0.25 
0.25 0.5 0 0.5 0.5 -0.25 0 0.5 0.25 
-0.25 0.5 0.5 -0.25 -0.5 -0.5 -0.5 -0.25 -0.5 
-0.25 -0.25 -0.5 -0.25 0 -0.5 -0.5 0.25 -0.5 
-0.25 0.25 -0.5 0 -0.25 -0.5 0.25 -0.25 -0.5 
0.25 -0.5 -0.5 0.25 0.5 -0.5 0.5 0.25 -0.5 
0.25 0.25 -0.5 0.25 0 -0.5 0.5 -0.25 -0.5 
0 0.25 -0.5 -0.25 0.5 -0.5 -0.5 -0.25 0.5 
-0.25 -0.5 0.5 -0.25 -0.25 0.5 0 -0.25 0.5 
0.25 -0.5 0.5 0.25 -0.25 0.5 -0.25 0 0.5 
-0.25 0.25 0.5 -0.5 0.25 0.5 0.5 0.25 0.5 
0.25 0.5 0.5 0.25 0.25 0.5 0 0.25 0.5 
-0.25 0.5 0.5 0.25 0 0.5 0.5 -0.25 0.5 
-0.5 -0.375 -0.5 -0.5 -0.5 -0.375 -0.5 -0.375 -0.375 
-0.5 -0.375 -0.25 -0.5 -0.5 -0.125 -0.5 -0.375 -0.125 
-0.5 -0.25 -0.375 -0.5 -0.125 -0.375 -0.5 -0.125 -0.5 
-0.5 -0.375 0 -0.5 -0.5 0.125 -0.5 -0.375 0.125 
-0.5 -0.375 0.25 -0.5 -0.5 0.375 -0.5 -0.375 0.375 
-0.5 -0.25 0.125 -0.5 -0.125 0.125 -0.5 -0.125 0 
-0.5 0 -0.125 -0.5 0.125 -0.125 -0.5 0.125 -0.25 
-0.5 0.25 -0.375 -0.5 0.375 -0.375 -0.5 0.375 -0.5 
-0.5 0.125 -0.375 -0.5 0.125 -0.5 -0.5 0 -0.375 
-0.5 -0.25 -0.125 -0.5 -0.125 -0.125 -0.5 -0.125 -0.25 
-0.5 0.375 0.5 -0.5 0.5 0.375 -0.5 0.375 0.375 
-0.5 0.375 0.25 -0.5 0.5 0.125 -0.5 0.375 0.125 
-0.5 0.25 0.375 -0.5 0.125 0.375 -0.5 0.125 0.5 
-0.5 0.375 0 -0.5 0.5 -0.125 -0.5 0.375 -0.125 
-0.5 0.375 -0.25 -0.5 0.5 -0.375 -0.5 0.25 -0.125 
-0.5 0.125 0 -0.5 0 0.125 -0.5 -0.125 0.25 
-0.5 -0.25 0.375 -0.5 -0.375 0.5 -0.5 -0.125 0.375 
-0.5 -0.125 0.5 -0.5 0 0.375 -0.5 0.25 0.125 
-0.5 0.125 0.125 -0.5 0.125 0.25 0.5 -0.5 -0.375 
0.5 -0.375 -0.5 0.5 -0.375 -0.375 0.5 -0.25 -0.375 
0.5 -0.125 -0.5 0.5 -0.125 -0.375 0.5 -0.375 -0.25 
0.5 -0.375 -0.125 0.5 -0.5 -0.125 0.5 0 -0.375 
0.5 0.125 -0.5 0.5 0.125 -0.375 0.5 0.25 -0.375 
0.5 0.375 -0.5 0.5 0.375 -0.375 0.5 0.125 -0.25 
0.5 0.125 -0.125 0.5 0 -0.125 0.5 -0.125 0 
0.5 -0.125 0.125 0.5 -0.25 0.125 0.5 -0.375 0.25 
0.5 -0.375 0.375 0.5 -0.5 0.375 0.5 -0.375 0.125 
0.5 -0.5 0.125 0.5 -0.375 0 0.5 -0.125 -0.25 
0.5 -0.125 -0.125 0.5 -0.25 -0.125 0.5 0.5 0.375 
0.5 0.375 0.5 0.5 0.375 0.375 0.5 0.25 0.375 
0.5 0.125 0.5 0.5 0.125 0.375 0.5 0.375 0.25 
0.5 0.375 0.125 0.5 0.5 0.125 0.5 0 0.375 
0.5 -0.125 0.5 0.5 -0.125 0.375 0.5 -0.25 0.375 
0.5 -0.375 0.5 0.5 -0.125 0.25 0.5 0 0.125 
0.5 0.125 0 0.5 0.25 -0.125 0.5 0.375 -0.25 
0.5 0.5 -0.375 0.5 0.375 -0.125 0.5 0.5 -0.125 
0.5 0.375 0 0.5 0.125 0.25 0.5 0.125 0.125 
0.5 0.25 0.125 -0.5 -0.5 -0.375 -0.375 -0.5 -0.5 
-0.375 -0.5 -0.375 -0.25 -0.5 -0.375 -0.125 -0.5 -0.5 
-0.125 -0.5 -0.375 -0.375 -0.5 -0.25 -0.375 -0.5 -0.125 
-0.5 -0.5 -0.125 0 -0.5 -0.375 0.125 -0.5 -0.5 
0.125 -0.5 -0.375 0.25 -0.5 -0.375 0.375 -0.5 -0.5 
0.375 -0.5 -0.375 0.125 -0.5 -0.25 0.125 -0.5 -0.125 
0 -0.5 -0.125 -0.125 -0.5 0 -0.125 -0.5 0.125 
-0.25 -0.5 0.125 -0.375 -0.5 0.25 -0.375 -0.5 0.375 
-0.5 -0.5 0.375 -0.375 -0.5 0.125 -0.5 -0.5 0.125 
-0.375 -0.5 0 -0.125 -0.5 -0.25 -0.125 -0.5 -0.125 
-0.25 -0.5 -0.125 0.5 -0.5 0.375 0.375 -0.5 0.5 
0.375 -0.5 0.375 0.25 -0.5 0.375 0.125 -0.5 0.5 
0.125 -0.5 0.375 0.375 -0.5 0.25 0.375 -0.5 0.125 
0.5 -0.5 0.125 0 -0.5 0.375 -0.125 -0.5 0.5 
-0.125 -0.5 0.375 -0.25 -0.5 0.375 -0.375 -0.5 0.5 
-0.125 -0.5 0.25 0 -0.5 0.125 0.125 -0.5 0 
0.25 -0.5 -0.125 0.375 -0.5 -0.25 0.5 -0.5 -0.375 
0.375 -0.5 -0.125 0.5 -0.5 -0.125 0.375 -0.5 0 
0.125 -0.5 0.25 0.125 -0.5 0.125 0.25 -0.5 0.125 
-0.375 0.5 -0.5 -0.5 0.5 -0.375 -0.375 0.5 -0.375 
-0.375 0.5 -0.25 -0.5 0.5 -0.125 -0.375 0.5 -0.125 
-0.25 0.5 -0.375 -0.125 0.5 -0.375 -0.125 0.5 -0.5 
-0.375 0.5 0 -0.5 0.5 0.125 -0.375 0.5 0.125 
-0.375 0.5 0.25 -0.5 0.5 0.375 -0.375 0.5 0.375 
-0.25 0.5 0.125 -0.125 0.5 0.125 -0.125 0.5 0 
0 0.5 -0.125 0.125 0.5 -0.125 0.125 0.5 -0.25 
0.25 0.5 -0.375 0.375 0.5 -0.375 0.375 0.5 -0.5 
0.125 0.5 -0.375 0.125 0.5 -0.5 0 0.5 -0.375 
-0.25 0.5 -0.125 -0.125 0.5 -0.125 -0.125 0.5 -0.25 
0.375 0.5 0.5 0.5 0.5 0.375 0.375 0.5 0.375 
0.375 0.5 0.25 0.5 0.5 0.125 0.375 0.5 0.125 
0.25 0.5 0.375 0.125 0.5 0.375 0.125 0.5 0.5 
0.375 0.5 0 0.5 0.5 -0.125 0.375 0.5 -0.125 
0.375 0.5 -0.25 0.5 0.5 -0.375 0.25 0.5 -0.125 
0.125 0.5 0 0 0.5 0.125 -0.125 0.5 0.25 
-0.25 0.5 0.375 -0.375 0.5 0.5 -0.125 0.5 0.375 
-0.125 0.5 0.5 0 0.5 0.375 0.25 0.5 0.125 
0.125 0.5 0.125 0.125 0.5 0.25 -0.375 -0.5 -0.5 
-0.5 -0.375 -0.5 -0.375 -0.375 -0.5 -0.375 -0.25 -0.5 
-0.5 -0.125 -0.5 -0.375 -0.125 -0.5 -0.25 -0.375 -0.5 
-0.125 -0.375 -0.5 -0.125 -0.5 -0.5 -0.375 0 -0.5 
-0.5 0.125 -0.5 -0.375 0.125 -0.5 -0.375 0.25 -0.5 
-0.5 0.375 -0.5 -0.375 0.375 -0.5 -0.25 0.125 -0.5 
-0.125 0.125 -0.5 -0.125 0 -0.5 0 -0.125 -0.5 
0.125 -0.125 -0.5 0.125 -0.25 -0.5 0.25 -0.375 -0.5 
0.375 -0.375 -0.5 0.375 -0.5 -0.5 0.125 -0.375 -0.5 
0.125 -0.5 -0.5 0 -0.375 -0.5 -0.25 -0.125 -0.5 
-0.125 -0.125 -0.5 -0.125 -0.25 -0.5 0.375 0.5 -0.5 
0.5 0.375 -0.5 0.375 0.375 -0.5 0.375 0.25 -0.5 
0.5 0.125 -0.5 0.375 0.125 -0.5 0.25 0.375 -0.5 
0.125 0.375 -0.5 0.125 0.5 -0.5 0.375 0 -0.5 
0.5 -0.125 -0.5 0.375 -0.125 -0.5 0.375 -0.25 -0.5 
0.5 -0.375 -0.5 0.25 -0.125 -0.5 0.125 0 -0.5 
0 0.125 -0.5 -0.125 0.25 -0.5 -0.25 0.375 -0.5 
-0.375 0.5 -0.5 -0.125 0.375 -0.5 -0.125 0.5 -0.5 
0 0.375 -0.5 0.25 0.125 -0.5 0.125 0.125 -0.5 
0.125 0.25 -0.5 -0.5 -0.375 0.5 -0.375 -0.5 0.5 
-0.375 -0.375 0.5 -0.25 -0.375 0.5 -0.125 -0.5 0.5 
-0.125 -0.375 0.5 -0.375 -0.25 0.5 -0.375 -0.125 0.5 
-0.5 -0.125 0.5 0 -0.375 0.5 0.125 -0.5 0.5 
0.125 -0.375 0.5 0.25 -0.375 0.5 0.375 -0.5 0.5 
0.375 -0.375 0.5 0.125 -0.25 0.5 0.125 -0.125 0.5 
0 -0.125 0.5 -0.125 0 0.5 -0.125 0.125 0.5 
-0.25 0.125 0.5 -0.375 0.25 0.5 -0.375 0.375 0.5 
-0.5 0.375 0.5 -0.375 0.125 0.5 -0.5 0.125 0.5 
-0.375 0 0.5 -0.125 -0.25 0.5 -0.125 -0.125 0.5 
-0.25 -0.125 0.5 0.5 0.375 0.5 0.375 0.5 0.5 
0.375 0.375 0.5 0.25 0.375 0.5 0.125 0.5 0.5 
0.125 0.375 0.5 0.375 0.25 0.5 0.375 0.125 0.5 
0.5 0.125 0.5 0 0.375 0.5 -0.125 0.5 0.5 
-0.125 0.375 0.5 -0.25 0.375 0.5 -0.375 0.5 0.5 
-0.125 0.25 0.5 0 0.125 0.5 0.125 0 0.5 
0.25 -0.125 0.5 0.375 -0.25 0.5 0.5 -0.375 0.5 
0.375 -0.125 0.5 0.5 -0.125 0.5 0.375 0 0.5 
0.125 0.25 0.5 0.125 0.125 0.5 0.25 0.125 0.5 

POLYGONS 768 3072
3 0 151 150 
3 151 55 152 
3 152 54 150 
3 151 152 150 
3 55 154 153 
3 154 25 155 
3 155 56 153 
3 154 155 153 
3 56 157 156 
3 157 24 158 
3 158 54 156 
3 157 158 156 
3 55 153 152 
3 153 56 156 
3 156 54 152 
3 153 156 152 
3 25 160 159 
3 160 58 161 
3 161 57 159 
3 160 161 159 
3 58 163 162 
3 163 1 164 
3 164 59 162 
3 163 164 162 
3 59 166 165 
3 166 26 167 
3 167 57 165 
3 166 167 165 
3 58 162 161 
3 162 59 165 
3 165 57 161 
3 162 165 161 
3 26 169 168 
3 169 61 170 
3 170 60 168 
3 169 170 168 
3 61 172 171 
3 172 2 173 
3 173 62 171 
3 172 173 171 
3 62 175 174 
3 175 24 176 
3 176 60 174 
3 175 176 174 
3 61 171 170 
3 171 62 174 
3 174 60 170 
3 171 174 170 
3 25 159 155 
3 159 57 177 
3 177 56 155 
3 159 177 155 
3 57 167 178 
3 167 26 168 
3 168 60 178 
3 167 168 178 
3 60 176 179 
3 176 24 157 
3 157 56 179 
3 176 157 179 
3 57 178 177 
3 178 60 179 
3 179 56 177 
3 178 179 177 
3 3 181 180 
3 181 64 182 
3 182 63 180 
3 181 182 180 
3 64 184 183 
3 184 28 185 
3 185 65 183 
3 184 185 183 
3 65 187 186 
3 187 27 188 
3 188 63 186 
3 187 188 186 
3 64 183 182 
3 183 65 186 
3 186 63 182 
3 183 186 182 
3 28 190 189 
3 190 67 191 
3 191 66 189 
3 190 191 189 
3 67 193 192 
3 193 2 172 
3 172 61 192 
3 193 172 192 
3 61 169 194 
3 169 26 195 
3 195 66 194 
3 169 195 194 
3 67 192 191 
3 192 61 194 
3 194 66 191 
3 192 194 191 
3 26 166 196 
3 166 59 197 
3 197 68 196 
3 166 197 196 
3 59 164 198 
3 164 1 199 
3 199 69 198 
3 164 199 198 
3 69 201 200 
3 201 27 202 
3 202 68 200 
3 201 202 200 
3 59 198 197 
3 198 69 200 
3 200 68 197 
3 198 200 197 
3 28 189 185 
3 189 66 203 
3 203 65 185 
3 189 203 185 
3 66 195 204 
3 195 26 196 
3 196 68 204 
3 195 196 204 
3 68 202 205 
3 202 27 187 
3 187 65 205 
3 202 187 205 
3 66 204 203 
3 204 68 205 
3 205 65 203 
3 204 205 203 
3 4 207 206 
3 207 71 208 
3 208 70 206 
3 207 208 206 
3 71 210 209 
3 210 30 211 
3 211 72 209 
3 210 211 209 
3 72 213 212 
3 213 29 214 
3 214 70 212 
3 213 214 212 
3 71 209 208 
3 209 72 212 
3 212 70 208 
3 209 212 208 
3 30 216 215 
3 216 74 217 
3 217 73 215 
3 216 217 215 
3 74 219 218 
3 219 6 220 
3 220 75 218 
3 219 220 218 
3 75 222 221 
3 222 31 223 
3 223 73 221 
3 222 223 221 
3 74 218 217 
3 218 75 221 
3 221 73 217 
3 218 221 217 
3 31 225 224 
3 225 77 226 
3 226 76 224 
3 225 226 224 
3 77 228 227 
3 228 5 229 
3 229 78 227 
3 228 229 227 
3 78 231 230 
3 231 29 232 
3 232 76 230 
3 231 232 230 
3 77 227 226 
3 227 78 230 
3 230 76 226 
3 227 230 226 
3 30 215 211 
3 215 73 233 
3 233 72 211 
3 215 233 211 
3 73 223 234 
3 223 31 224 
3 224 76 234 
3 223 224 234 
3 76 232 235 
3 232 29 213 
3 213 72 235 
3 232 213 235 
3 73 234 233 
3 234 76 235 
3 235 72 233 
3 234 235 233 
3 7 237 236 
3 237 80 238 
3 238 79 236 
3 237 238 236 
3 80 240 239 
3 240 33 241 
3 241 81 239 
3 240 241 239 
3 81 243 242 
3 243 32 244 
3 244 79 242 
3 243 244 242 
3 80 239 238 
3 239 81 242 
3 242 79 238 
3 239 242 238 
3 33 246 245 
3 246 83 247 
3 247 82 245 
3 246 247 245 
3 83 249 248 
3 249 5 228 
3 228 77 248 
3 249 228 248 
3 77 225 250 
3 225 31 251 
3 251 82 250 
3 225 251 250 
3 83 248 247 
3 248 77 250 
3 250 82 247 
3 248 250 247 
3 31 222 252 
3 222 75 253 
3 253 84 252 
3 222 253 252 
3 75 220 254 
3 220 6 255 
3 255 85 254 
3 220 255 254 
3 85 257 256 
3 257 32 258 
3 258 84 256 
3 257 258 256 
3 75 254 253 
3 254 85 256 
3 256 84 253 
3 254 256 253 
3 33 245 241 
3 245 82 259 
3 259 81 241 
3 245 259 241 
3 82 251 260 
3 251 31 252 
3 252 84 260 
3 251 252 260 
3 84 258 261 
3 258 32 243 
3 243 81 261 
3 258 243 261 
3 82 260 259 
3 260 84 261 
3 261 81 259 
3 260 261 259 
3 8 263 262 
3 263 87 264 
3 264 86 262 
3 263 264 262 
3 87 266 265 
3 266 35 267 
3 267 88 265 
3 266 267 265 
3 88 269 268 
3 269 34 270 
3 270 86 268 
3 269 270 268 
3 87 265 264 
3 265 88 268 
3 268 86 264 
3 265 268 264 
3 35 272 271 
3 272 90 273 
3 273 89 271 
3 272 273 271 
3 90 275 274 
3 275 10 276 
3 276 91 274 
3 275 276 274 
3 91 278 277 
3 278 36 279 
3 279 89 277 
3 278 279 277 
3 90 274 273 
3 274 91 277 
3 277 89 273 
3 274 277 273 
3 36 281 280 
3 281 93 282 
3 282 92 280 
3 281 282 280 
3 93 284 283 
3 284 9 285 
3 285 94 283 
3 284 285 283 
3 94 287 286 
3 287 34 288 
3 288 92 286 
3 287 288 286 
3 93 283 282 
3 283 94 286 
3 286 92 282 
3 283 286 282 
3 35 271 267 
3 271 89 289 
3 289 88 267 
3 271 289 267 
3 89 279 290 
3 279 36 280 
3 280 92 290 
3 279 280 290 
3 92 288 291 
3 288 34 269 
3 269 88 291 
3 288 269 291 
3 89 290 289 
3 290 92 291 
3 291 88 289 
3 290 291 289 
3 11 293 292 
3 293 96 294 
3 294 95 292 
3 293 294 292 
3 96 296 295 
3 296 38 297 
3 297 97 295 
3 296 297 295 
3 97 299 298 
3 299 37 300 
3 300 95 298 
3 299 300 298 
3 96 295 294 
3 295 97 298 
3 298 95 294 
3 295 298 294 
3 38 302 301 
3 302 99 303 
3 303 98 301 
3 302 303 301 
3 99 305 304 
3 305 9 284 
3 284 93 304 
3 305 284 304 
3 93 281 306 
3 281 36 307 
3 307 98 306 
3 281 307 306 
3 99 304 303 
3 304 93 306 
3 306 98 303 
3 304 306 303 
3 36 278 308 
3 278 91 309 
3 309 100 308 
3 278 309 308 
3 91 276 310 
3 276 10 311 
3 311 101 310 
3 276 311 310 
3 101 313 312 
3 313 37 314 
3 314 100 312 
3 313 314 312 
3 91 310 309 
3 310 101 312 
3 312 100 309 
3 310 312 309 
3 38 301 297 
3 301 98 315 
3 315 97 297 
3 301 315 297 
3 98 307 316 
3 307 36 308 
3 308 100 316 
3 307 308 316 
3 100 314 317 
3 314 37 299 
3 299 97 317 
3 314 299 317 
3 98 316 315 
3 316 100 317 
3 317 97 315 
3 316 317 315 
3 12 319 318 
3 319 103 320 
3 320 102 318 
3 319 320 318 
3 103 322 321 
3 322 40 323 
3 323 104 321 
3 322 323 321 
3 104 325 324 
3 325 39 326 
3 326 102 324 
3 325 326 324 
3 103 321 320 
3 321 104 324 
3 324 102 320 
3 321 324 320 
3 40 328 327 
3 328 106 329 
3 329 105 327 
3 328 329 327 
3 106 331 330 
3 331 13 332 
3 332 107 330 
3 331 332 330 
3 107 334 333 
3 334 41 335 
3 335 105 333 
3 334 335 333 
3 106 330 329 
3 330 107 333 
3 333 105 329 
3 330 333 329 
3 41 337 336 
3 337 109 338 
3 338 108 336 
3 337 338 336 
3 109 340 339 
3 340 14 341 
3 341 110 339 
3 340 341 339 
3 110 343 342 
3 343 39 344 
3 344 108 342 
3 343 344 342 
3 109 339 338 
3 339 110 342 
3 342 108 338 
3 339 342 338 
3 40 327 323 
3 327 105 345 
3 345 104 323 
3 327 345 323 
3 105 335 346 
3 335 41 336 
3 336 108 346 
3 335 336 346 
3 108 344 347 
3 344 39 325 
3 325 104 347 
3 344 325 347 
3 105 346 345 
3 346 108 347 
3 347 104 345 
3 346 347 345 
3 15 349 348 
3 349 112 350 
3 350 111 348 
3 349 350 348 
3 112 352 351 
3 352 43 353 
3 353 113 351 
3 352 353 351 
3 113 355 354 
3 355 42 356 
3 356 111 354 
3 355 356 354 
3 112 351 350 
3 351 113 354 
3 354 111 350 
3 351 354 350 
3 43 358 357 
3 358 115 359 
3 359 114 357 
3 358 359 357 
3 115 361 360 
3 361 14 340 
3 340 109 360 
3 361 340 360 
3 109 337 362 
3 337 41 363 
3 363 114 362 
3 337 363 362 
3 115 360 359 
3 360 109 362 
3 362 114 359 
3 360 362 359 
3 41 334 364 
3 334 107 365 
3 365 116 364 
3 334 365 364 
3 107 332 366 
3 332 13 367 
3 367 117 366 
3 332 367 366 
3 117 369 368 
3 369 42 370 
3 370 116 368 
3 369 370 368 
3 107 366 365 
3 366 117 368 
3 368 116 365 
3 366 368 365 
3 43 357 353 
3 357 114 371 
3 371 113 353 
3 357 371 353 
3 114 363 372 
3 363 41 364 
3 364 116 372 
3 363 364 372 
3 116 370 373 
3 370 42 355 
3 355 113 373 
3 370 355 373 
3 114 372 371 
3 372 116 373 
3 373 113 371 
3 372 373 371 
3 16 375 374 
3 375 119 376 
3 376 118 374 
3 375 376 374 
3 119 378 377 
3 378 45 379 
3 379 120 377 
3 378 379 377 
3 120 381 380 
3 381 44 382 
3 382 118 380 
3 381 382 380 
3 119 377 376 
3 377 120 380 
3 380 118 376 
3 377 380 376 
3 45 384 383 
3 384 122 385 
3 385 121 383 
3 384 385 383 
3 122 387 386 
3 387 18 388 
3 388 123 386 
3 387 388 386 
3 123 390 389 
3 390 46 391 
3 391 121 389 
3 390 391 389 
3 122 386 385 
3 386 123 389 
3 389 121 385 
3 386 389 385 
3 46 393 392 
3 393 125 394 
3 394 124 392 
3 393 394 392 
3 125 396 395 
3 396 17 397 
3 397 126 395 
3 396 397 395 
3 126 399 398 
3 399 44 400 
3 400 124 398 
3 399 400 398 
3 125 395 394 
3 395 126 398 
3 398 124 394 
3 395 398 394 
3 45 383 379 
3 383 121 401 
3 401 120 379 
3 383 401 379 
3 121 391 402 
3 391 46 392 
3 392 124 402 
3 391 392 402 
3 124 400 403 
3 400 44 381 
3 381 120 403 
3 400 381 403 
3 121 402 401 
3 402 124 403 
3 403 120 401 
3 402 403 401 
3 19 405 404 
3 405 128 406 
3 406 127 404 
3 405 406 404 
3 128 408 407 
3 408 48 409 
3 409 129 407 
3 408 409 407 
3 129 411 410 
3 411 47 412 
3 412 127 410 
3 411 412 410 
3 128 407 406 
3 407 129 410 
3 410 127 406 
3 407 410 406 
3 48 414 413 
3 414 131 415 
3 415 130 413 
3 414 415 413 
3 131 417 416 
3 417 17 396 
3 396 125 416 
3 417 396 416 
3 125 393 418 
3 393 46 419 
3 419 130 418 
3 393 419 418 
3 131 416 415 
3 416 125 418 
3 418 130 415 
3 416 418 415 
3 46 390 420 
3 390 123 421 
3 421 132 420 
3 390 421 420 
3 123 388 422 
3 388 18 423 
3 423 133 422 
3 388 423 422 
3 133 425 424 
3 425 47 426 
3 426 132 424 
3 425 426 424 
3 123 422 421 
3 422 133 424 
3 424 132 421 
3 422 424 421 
3 48 413 409 
3 413 130 427 
3 427 129 409 
3 413 427 409 
3 130 419 428 
3 419 46 420 
3 420 132 428 
3 419 420 428 
3 132 426 429 
3 426 47 411 
3 411 129 429 
3 426 411 429 
3 130 428 427 
3 428 132 429 
3 429 129 427 
3 428 429 427 
3 20 431 430 
3 431 135 432 
3 432 134 430 
3 431 432 430 
3 135 434 433 
3 434 50 435 
3 435 136 433 
3 434 435 433 
3 136 437 436 
3 437 49 438 
3 438 134 436 
3 437 438 436 
3 135 433 432 
3 433 136 436 
3 436 134 432 
3 433 436 432 
3 50 440 439 
3 440 138 441 
3 441 137 439 
3 440 441 439 
3 138 443 442 
3 443 21 444 
3 444 139 442 
3 443 444 442 
3 139 446 445 
3 446 51 447 
3 447 137 445 
3 446 447 445 
3 138 442 441 
3 442 139 445 
3 445 137 441 
3 442 445 441 
3 51 449 448 
3 449 141 450 
3 450 140 448 
3 449 450 448 
3 141 452 451 
3 452 22 453 
3 453 142 451 
3 452 453 451 
3 142 455 454 
3 455 49 456 
3 456 140 454 
3 455 456 454 
3 141 451 450 
3 451 142 454 
3 454 140 450 
3 451 454 450 
3 50 439 435 
3 439 137 457 
3 457 136 435 
3 439 457 435 
3 137 447 458 
3 447 51 448 
3 448 140 458 
3 447 448 458 
3 140 456 459 
3 456 49 437 
3 437 136 459 
3 456 437 459 
3 137 458 457 
3 458 140 459 
3 459 136 457 
3 458 459 457 
3 23 461 460 
3 461 144 462 
3 462 143 460 
3 461 462 460 
3 144 464 463 
3 464 53 465 
3 465 145 463 
3 464 465 463 
3 145 467 466 
3 467 52 468 
3 468 143 466 
3 467 468 466 
3 144 463 462 
3 463 145 466 
3 466 143 462 
3 463 466 462 
3 53 470 469 
3 470 147 471 
3 471 146 469 
3 470 471 469 
3 147 473 472 
3 473 22 452 
3 452 141 472 
3 473 452 472 
3 141 449 474 
3 449 51 475 
3 475 146 474 
3 449 475 474 
3 147 472 471 
3 472 141 474 
3 474 146 471 
3 472 474 471 
3 51 446 476 
3 446 139 477 
3 477 148 476 
3 446 477 476 
3 139 444 478 
3 444 21 479 
3 479 149 478 
3 444 479 478 
3 149 481 480 
3 481 52 482 
3 482 148 480 
3 481 482 480 
3 139 478 477 
3 478 149 480 
3 480 148 477 
3 478 480 477 
3 53 469 465 
3 469 146 483 
3 483 145 465 
3 469 483 465 
3 146 475 484 
3 475 51 476 
3 476 148 484 
3 475 476 484 
3 148 482 485 
3 482 52 467 
3 467 145 485 
3 482 467 485 
3 146 484 483 
3 484 148 485 
3 485 145 483 
3 484 485 483 

POINT_DATA 486
SCALARS Gauss_Curvature double
LOOKUP_TABLE default
1809.56 904.779 904.779 1809.56 1809.56 904.779 904.779 1809.56 1809.56 
904.779 904.779 1809.56 1809.56 904.779 904.779 1809.56 1809.56 904.779 
904.779 1809.56 1809.56 904.779 904.779 1809.56 402.124 402.124 0 
402.124 402.124 402.124 402.124 0 402.124 402.124 402.124 402.124 
0 402.124 402.124 402.124 402.124 0 402.124 402.124 402.124 
402.124 0 402.124 402.124 402.124 402.124 0 402.124 402.124 
402.124 402.124 0 -1.42109e-14 402.124 0 -7.10543e-15 0 402.124 
402.124 402.124 0 -1.42109e-14 402.124 -7.10543e-15 402.124 402.124 402.124 
0 -1.42109e-14 402.124 0 -7.10543e-15 0 402.124 402.124 402.124 
0 -1.42109e-14 402.124 -7.10543e-15 402.124 402.124 402.124 0 -1.42109e-14 
402.124 0 -7.10543e-15 0 402.124 402.124 402.124 0 -1.42109e-14 
402.124 -7.10543e-15 402.124 402.124 402.124 0 -1.42109e-14 402.124 0 
-7.10543e-15 0 402.124 402.124 402.124 0 -1.42109e-14 402.124 -7.10543e-15 
402.124 402.124 402.124 0 -1.42109e-14 402.124 0 -7.10543e-15 0 
402.124 402.124 402.124 0 -1.42109e-14 402.124 -7.10543e-15 402.124 402.124 
402.124 0 -1.42109e-14 402.124 0 -7.10543e-15 0 402.124 402.124 
402.124 0 -1.42109e-14 402.124 -7.10543e-15 402.124 402.124 402.124 0 
-1.42109e-14 402.124 0 -7.10543e-15 0 402.124 -1.42109e-14 402.124 0 
-1.42109e-14 402.124 0 -7.10543e-15 0 -1.42109e-14 -7.10543e-15 0 -7.10543e-15 
-7.10543e-15 0 402.124 0 402.124 -7.10543e-15 -1.42109e-14 0 -1.42109e-14 
402.124 402.124 0 -1.42109e-14 402.124 0 -7.10543e-15 0 402.124 
-1.42109e-14 402.124 0 -1.42109e-14 402.124 -7.10543e-15 -1.42109e-14 -7.10543e-15 -7.10543e-15 
-7.10543e-15 402.124 0 402.124 -7.10543e-15 -1.42109e-14 0 -1.42109e-14 402.124 
402.124 0 -1.42109e-14 402.124 0 -7.10543e-15 0 402.124 -1.42109e-14 
402.124 0 -1.42109e-14 402.124 0 -7.10543e-15 0 -1.42109e-14 -7.10543e-15 
0 -7.10543e-15 -7.10543e-15 0 402.124 0 402.124 -7.10543e-15 -1.42109e-14 
0 -1.42109e-14 402.124 402.124 0 -1.42109e-14 402.124 0 -7.10543e-15 
0 402.124 -1.42109e-14 402.124 0 -1.42109e-14 402.124 -7.10543e-15 -1.42109e-14 
-7.10543e-15 -7.10543e-15 -7.10543e-15 402.124 0 402.124 -7.10543e-15 -1.42109e-14 0 
-1.42109e-14 402.124 402.124 0 -1.42109e-14 402.124 0 -7.10543e-15 0 
402.124 -1.42109e-14 402.124 0 -1.42109e-14 402.124 0 -7.10543e-15 0 
-1.42109e-14 -7.10543e-15 0 -7.10543e-15 -7.10543e-15 0 402.124 0 402.124 
-7.10543e-15 -1.42109e-14 0 -1.42109e-14 402.124 402.124 0 -1.42109e-14 402.124 
0 -7.10543e-15 0 402.124 -1.42109e-14 402.124 0 -1.42109e-14 402.124 
-7.10543e-15 -1.42109e-14 -7.10543e-15 -7.10543e-15 -7.10543e-15 402.124 0 402.124 -7.10543e-15 
-1.42109e-14 0 -1.42109e-14 402.124 402.124 0 -1.42109e-14 402.124 0 
-7.10543e-15 0 402.124 -1.42109e-14 402.124 0 -1.42109e-14 402.124 0 
-7.10543e-15 0 -1.42109e-14 -7.10543e-15 0 -7.10543e-15 -7.10543e-15 0 402.124 
0 402.124 -7.10543e-15 -1.42109e-14 0 -1.42109e-14 402.124 402.124 0 
-1.42109e-14 402.124 0 -7.10543e-15 0 402.124 -1.42109e-14 402.124 0 
-1.42109e-14 402.124 -7.10543e-15 -1.42109e-14 -7.10543e-15 -7.10543e-15 -7.10543e-15 402.124 0 
402.124 -7.10543e-15 -1.42109e-14 0 -1.42109e-14 402.124 402.124 0 -1.42109e-14 
402.124 0 -7.10543e-15 0 402.124 -1.42109e-14 402.124 0 -1.42109e-14 
402.124 0 -7.10543e-15 0 -1.42109e-14 -7.10543e-15 0 -7.10543e-15 -7.10543e-15 
0 402.124 0 402.124 -7.10543e-15 -1.42109e-14 0 -1.42109e-14 402.124 
402.124 0 -1.42109e-14 402.124 0 -7.10543e-15 0 402.124 -1.42109e-14 
402.124 0 -1.42109e-14 402.124 -7.10543e-15 -1.42109e-14 -7.10543e-15 -7.10543e-15 -7.10543e-15 
402.124 0 402.124 -7.10543e-15 -1.42109e-14 0 -1.42109e-14 402.124 402.124 
0 -1.42109e-14 402.124 0 -7.10543e-15 0 402.124 -1.42109e-14 402.124 
0 -1.42109e-14 402.124 0 -7.10543e-15 0 -1.42109e-14 -7.10543e-15 0 
-7.10543e-15 -7.10543e-15 0 402.124 0 402.124 -7.10543e-15 -1.42109e-14 0 
-1.42109e-14 402.124 402.124 0 -1.42109e-14 402.124 0 -7.10543e-15 0 
402.124 -1.42109e-14 402.124 0 -1.42109e-14 402.124 -7.10543e-15 -1.42109e-14 -7.10543e-15 
-7.10543e-15 -7.10543e-15 402.124 0 402.124 -7.10543e-15 -1.42109e-14 0 -1.42109e-14 

NORMALS Normals float
-1 0 0 -1 0 0 -1 0 0 
-1 0 0 1 0 0 1 0 0 
1 0 0 1 0 0 0 -1 0 
0 -1 0 0 -1 0 0 -1 0 
0 1 0 0 1 0 0 1 0 
0 1 0 0 0 -1 0 0 -1 
0 0 -1 0 0 -1 0 0 1 
0 0 1 0 0 1 0 0 1 
-1 0 0 -1 0 0 -1 0 0 
-1 0 0 -1 0 0 1 0 0 
1 0 0 1 0 0 1 0 0 
1 0 0 0 -1 0 0 -1 0 
0 -1 0 0 -1 0 0 -1 0 
0 1 0 0 1 0 0 1 0 
0 1 0 0 1 0 0 0 -1 
0 0 -1 0 0 -1 0 0 -1 
0 0 -1 0 0 1 0 0 1 
0 0 1 0 0 1 0 0 1 
-1 0 0 -1 0 0 -1 0 0 
-1 0 0 -1 0 0 -1 0 0 
-1 0 0 -1 0 0 -1 0 0 
-1 0 0 -1 0 0 -1 0 0 
-1 0 0 -1 0 0 -1 0 0 
-1 0 0 1 0 0 1 0 0 
1 0 0 1 0 0 1 0 0 
1 0 0 1 0 0 1 0 0 
1 0 0 1 0 0 1 0 0 
1 0 0 1 0 0 1 0 0 
1 0 0 1 0 0 0 -1 0 
0 -1 0 0 -1 0 0 -1 0 
0 -1 0 0 -1 0 0 -1 0 
0 -1 0 0 -1 0 0 -1 0 
0 -1 0 0 -1 0 0 -1 0 
0 -1 0 0 -1 0 0 -1 0 
0 1 0 0 1 0 0 1 0 
0 1 0 0 1 0 0 1 0 
0 1 0 0 1 0 0 1 0 
0 1 0 0 1 0 0 1 0 
0 1 0 0 1 0 0 1 0 
0 1 0 0 0 -1 0 0 -1 
0 0 -1 0 0 -1 0 0 -1 
0 0 -1 0 0 -1 0 0 -1 
0 0 -1 0 0 -1 0 0 -1 
0 0 -1 0 0 -1 0 0 -1 
0 0 -1 0 0 -1 0 0 1 
0 0 1 0 0 1 0 0 1 
0 0 1 0 0 1 0 0 1 
0 0 1 0 0 1 0 0 1 
0 0 1 0 0 1 0 0 1 
0 0 1 0 0 1 0 0 1 
-1 0 0 -1 0 0 -1 0 0 
-1 0 0 -1 0 0 -1 0 0 
-1 0 0 -1 0 0 -1 0 0 
-1 0 0 -1 0 0 -1 0 0 
-1 0 0 -1 0 0 -1 0 0 
-1 0 0 -1 0 0 -1 0 0 
-1 0 0 -1 0 0 -1 0 0 
-1 0 0 -1 0 0 -1 0 0 
-1 0 0 -1 0 0 -1 0 0 
-1 0 0 -1 0 0 -1 0 0 
-1 0 0 -1 0 0 -1 0 0 
-1 0 0 -1 0 0 -1 0 0 
-1 0 0 -1 0 0 -1 0 0 
-1 0 0 -1 0 0 -1 0 0 
-1 0 0 -1 0 0 -1 0 0 
-1 0 0 -1 0 0 -1 0 0 
-1 0 0 -1 0 0 -1 0 0 
-1 0 0 -1 0 0 -1 0 0 
-1 0 0 -1 0 0 1 0 0 
1 0 0 1 0 0 1 0 0 
1 0 0 1 0 0 1 0 0 
1 0 0 1 0 0 1 0 0 
1 0 0 1 0 0 1 0 0 
1 0 0 1 0 0 1 0 0 
1 0 0 1 0 0 1 0 0 
1 0 0 1 0 0 1 0 0 
1 0 0 1 0 0 1 0 0 
1 0 0 1 0 0 1 0 0 
1 0 0 1 0 0 1 0 0 
1 0 0 1 0 0 1 0 0 
1 0 0 1 0 0 1 0 0 
1 0 0 1 0 0 1 0 0 
1 0 0 1 0 0 1 0 0 
1 0 0 1 0 0 1 0 0 
1 0 0 1 0 0 1 0 0 
1 0 0 1 0 0 1 0 0 
1 0 0 1 0 0 1 0 0 
1 0 0 0 -1 0 0 -1 0 
0 -1 0 0 -1 0 0 -1 0 
0 -1 0 0 -1 0 0 -1 0 
0 -1 0 0 -1 0 0 -1 0 
0 -1 0 0 -1 0 0 -1 0 
0 -1 0 0 -1 0 0 -1 0 
0 -1 0 0 -1 0 0 -1 0 
0 -1 0 0 -1 0 0 -1 0 
0 -1 0 0 -1 0 0 -1 0 
0 -1 0 0 -1 0 0 -1 0 
0 -1 0 0 -1 0 0 -1 0 
0 -1 0 0 -1 0 0 -1 0 
0 -1 0 0 -1 0 0 -1 0 
0 -1 0 0 -1 0 0 -1 0 
0 -1 0 0 -1 0 0 -1 0 
0 -1 0 0 -1 0 0 -1 0 
0 -1 0 0 -1 0 0 -1 0 
0 -1 0 0 -1 0 0 -1 0 
0 -1 0 0 -1 0 0 -1 0 
0 1 0 0 1 0 0 1 0 
0 1 0 0 1 0 0 1 0 
0 1 0 0 1 0 0 1 0 
0 1 0 0 1 0 0 1 0 
0 1 0 0 1 0 0 1 0 
0 1 0 0 1 0 0 1 0 
0 1 0 0 1 0 0 1 0 
0 1 0 0 1 0 0 1 0 
0 1 0 0 1 0 0 1 0 
0 1 0 0 1 0 0 1 0 
0 1 0 0 1 0 0 1 0 
0 1 0 0 1 0 0 1 0 
0 1 0 0 1 0 0 1 0 
0 1 0 0 1 0 0 1 0 
0 1 0 0 1 0 0 1 0 
0 1 0 0 1 0 0 1 0 
0 1 0 0 1 0 0 1 0 
0 1 0 0 1 0 0 1 0 
0 1 0 0 1 0 0 0 -1 
0 0 -1 0 0 -1 0 0 -1 
0 0 -1 0 0 -1 0 0 -1 
0 0 -1 0 0 -1 0 0 -1 
0 0 -1 0 0 -1 0 0 -1 
0 0 -1 0 0 -1 0 0 -1 
0 0 -1 0 0 -1 0 0 -1 
0 0 -1 0 0 -1 0 0 -1 
0 0 -1 0 0 -1 0 0 -1 
0 0 -1 0 0 -1 0 0 -1 
0 0 -1 0 0 -1 0 0 -1 
0 0 -1 0 0 -1 0 0 -1 
0 0 -1 0 0 -1 0 0 -1 
0 0 -1 0 0 -1 0 0 -1 
0 0 -1 0 0 -1 0 0 -1 
0 0 -1 0 0 -1 0 0 -1 
0 0 -1 0 0 -1 0 0 -1 
0 0 -1 0 0 -1 0 0 -1 
0 0 -1 0 0 -1 0 0 -1 
0 0 -1 0 0 1 0 0 1 
0 0 1 0 0 1 0 0 1 
0 0 1 0 0 1 0 0 1 
0 0 1 0 0 1 0 0 1 
0 0 1 0 0 1 0 0 1 
0 0 1 0 0 1 0 0 1 
0 0 1 0 0 1 0 0 1 
0 0 1 0 0 1 0 0 1 
0 0 1 0 0 1 0 0 1 
0 0 1 0 0 1 0 0 1 
0 0 1 0 0 1 0 0 1 
0 0 1 0 0 1 0 0 1 
0 0 1 0 0 1 0 0 1 
0 0 1 0 0 1 0 0 1 
0 0 1 0 0 1 0 0 1 
0 0 1 0 0 1 0 0 1 
0 0 1 0 0 1 0 0 1 
0 0 1 0 0 1 0 0 1 
0 0 1 0 0 1 0 0 1 

TEXTURE_COORDINATES TCoords 2 float
0 0 1 0 0 1 1 1 -0 
0 -1 0 -0 1 -1 1 -0 -0 
-0 -1 -1 -0 -1 -1 0 -0 0 
-1 1 -0 1 -1 -0 0 -1 0 
-0 1 -1 1 0 0 1 0 0 
1 1 1 0 0.5 0.5 0 0.5 0.5 
1 0.5 0.5 1 -0.5 0 0 0.5 -0.5 
0.5 -0.5 1 -1 0.5 0 -0.5 -0.5 0 
-0.5 -0.5 -1 -0.5 -0.5 -1 0.5 0 0 
-0.5 0.5 -0.5 0.5 -1 1 -0.5 -0.5 0 
0 0.5 -0.5 0.5 -0.5 1 -1 0.5 0 
0.5 0.5 0 0.5 0.5 1 0.5 0.5 1 
0 0.25 0.25 0 0.25 0.25 0.5 0.25 0.75 
0 0.75 0.25 0.25 0.5 0.25 0.75 0 0.75 
1 0.75 0.75 1 0.75 0.75 0.5 0.75 0.25 
1 0.75 0.5 1 0.25 -0.25 0 0 0.25 
-0.25 0.25 -0.25 0.5 0 0.75 -0.25 0.75 -0.5 
0.25 -0.75 0.25 -0.75 0 -0.75 1 -1 0.75 
-0.75 0.75 -0.75 0.5 -1 0.25 -0.5 0.75 -0.25 
1 0 -0.25 -0.25 0 -0.25 -0.25 -0.5 -0.25 
-0.75 0 -0.75 -0.25 -0.25 -0.5 -0.25 -0.75 0 
-0.75 -1 -0.75 -0.75 -1 -0.75 -0.75 -0.5 -0.75 
-0.25 -1 -0.75 -0.5 -1 -0.25 0.25 0 0 
-0.25 0.25 -0.25 0.25 -0.5 0 -0.75 0.25 -0.75 
0.5 -0.25 0.75 -0.25 0.75 0 0.75 -1 1 
-0.75 0.75 -0.75 0.75 -0.5 1 -0.25 0.5 -0.75 
0.25 -1 -0.25 0 0 0.25 -0.25 0.25 -0.25 
0.5 0 0.75 -0.25 0.75 -0.5 0.25 -0.75 0.25 
-0.75 0 -0.75 1 -1 0.75 -0.75 0.75 -0.75 
0.5 -1 0.25 -0.5 0.75 -0.25 1 0 0.25 
0.25 0 0.25 0.25 0.5 0.25 0.75 0 0.75 
0.25 0.25 0.5 0.25 0.75 0 0.75 1 0.75 
0.75 1 0.75 0.75 0.5 0.75 0.25 1 0.75 
0.5 1 0.25 0 0.125 0.125 0 0.125 0.125 
0.25 0.125 0.375 0 0.375 0.125 0.125 0.25 0.125 
0.375 0 0.375 0.5 0.125 0.625 0 0.625 0.125 
0.75 0.125 0.875 0 0.875 0.125 0.625 0.25 0.625 
0.375 0.5 0.375 0.375 0.5 0.375 0.625 0.25 0.625 
0.125 0.75 0.125 0.875 0 0.875 0.125 0.625 0 
0.625 0.125 0.5 0.375 0.25 0.375 0.375 0.25 0.375 
1 0.875 0.875 1 0.875 0.875 0.75 0.875 0.625 
1 0.625 0.875 0.875 0.75 0.875 0.625 1 0.625 
0.5 0.875 0.375 1 0.375 0.875 0.25 0.875 0.125 
1 0.375 0.75 0.5 0.625 0.625 0.5 0.75 0.375 
0.875 0.25 1 0.125 0.875 0.375 1 0.375 0.875 
0.5 0.625 0.75 0.625 0.625 0.75 0.625 -0.125 0 
0 0.125 -0.125 0.125 -0.125 0.25 0 0.375 -0.125 
0.375 -0.25 0.125 -0.375 0.125 -0.375 0 -0.125 0.5 
0 0.625 -0.125 0.625 -0.125 0.75 0 0.875 -0.125 
0.875 -0.25 0.625 -0.375 0.625 -0.375 0.5 -0.5 0.375 
-0.625 0.375 -0.625 0.25 -0.75 0.125 -0.875 0.125 -0.875 
0 -0.625 0.125 -0.625 0 -0.5 0.125 -0.25 0.375 
-0.375 0.375 -0.375 0.25 -0.875 1 -1 0.875 -0.875 
0.875 -0.875 0.75 -1 0.625 -0.875 0.625 -0.75 0.875 
-0.625 0.875 -0.625 1 -0.875 0.5 -1 0.375 -0.875 
0.375 -0.875 0.25 -1 0.125 -0.75 0.375 -0.625 0.5 
-0.5 0.625 -0.375 0.75 -0.25 0.875 -0.125 1 -0.375 
0.875 -0.375 1 -0.5 0.875 -0.75 0.625 -0.625 0.625 
-0.625 0.75 0 -0.125 -0.125 0 -0.125 -0.125 -0.25 
-0.125 -0.375 0 -0.375 -0.125 -0.125 -0.25 -0.125 -0.375 
0 -0.375 -0.5 -0.125 -0.625 0 -0.625 -0.125 -0.75 
-0.125 -0.875 0 -0.875 -0.125 -0.625 -0.25 -0.625 -0.375 
-0.5 -0.375 -0.375 -0.5 -0.375 -0.625 -0.25 -0.625 -0.125 
-0.75 -0.125 -0.875 0 -0.875 -0.125 -0.625 0 -0.625 
-0.125 -0.5 -0.375 -0.25 -0.375 -0.375 -0.25 -0.375 -1 
-0.875 -0.875 -1 -0.875 -0.875 -0.75 -0.875 -0.625 -1 
-0.625 -0.875 -0.875 -0.75 -0.875 -0.625 -1 -0.625 -0.5 
-0.875 -0.375 -1 -0.375 -0.875 -0.25 -0.875 -0.125 -1 
-0.375 -0.75 -0.5 -0.625 -0.625 -0.5 -0.75 -0.375 -0.875 
-0.25 -1 -0.125 -0.875 -0.375 -1 -0.375 -0.875 -0.5 
-0.625 -0.75 -0.625 -0.625 -0.75 -0.625 0.125 0 0 
-0.125 0.125 -0.125 0.125 -0.25 0 -0.375 0.125 -0.375 
0.25 -0.125 0.375 -0.125 0.375 0 0.125 -0.5 0 
-0.625 0.125 -0.625 0.125 -0.75 0 -0.875 0.125 -0.875 
0.25 -0.625 0.375 -0.625 0.375 -0.5 0.5 -0.375 0.625 
-0.375 0.625 -0.25 0.75 -0.125 0.875 -0.125 0.875 0 
0.625 -0.125 0.625 0 0.5 -0.125 0.25 -0.375 0.375 
-0.375 0.375 -0.25 0.875 -1 1 -0.875 0.875 -0.875 
0.875 -0.75 1 -0.625 0.875 -0.625 0.75 -0.875 0.625 
-0.875 0.625 -1 0.875 -0.5 1 -0.375 0.875 -0.375 
0.875 -0.25 1 -0.125 0.75 -0.375 0.625 -0.5 0.5 
-0.625 0.375 -0.75 0.25 -0.875 0.125 -1 0.375 -0.875 