<?xml version="1.0"?>
<VTKFile type="UnstructuredGrid" version="1.0" byte_order="LittleEndian" header_type="UInt32">
  <UnstructuredGrid>
    <Piece  NumberOfPoints="414" NumberOfCells="412">
      <PointData  Scalars="vertexIndex " Vectors="">
        <DataArray type="Int64" Name="vertexIndex" NumberOfComponents="1" format="ascii" >
21052 21054 21055 21058 21141 21142 21143 21145 21147 21149 21151 21153 21155 21157 21159 21161 21163 21165 21167 21169 21171 21173 21175 21178 21327 21328 21329 21331 21333 21335 21337 21339 21341 21343 21345 21347 21349 21351 21353 21355 21357 21359 21361 21364 21447 21448 21449 21451 21458 21460 21462 21464 21466 21468 21470 21472 21474 21476 21478 21480 21482 21484 21486 21488 21490 21492 21494 21496 21498 21500 21502 21504 21506 21508 21510 21512 21514 21516 21518 21520 21522 21524 21526 21528 21530 21532 21534 21536 21538 21540 21578 21580 21582 21584 21586 21588 21590 21592 21594 21596 21598 21600 21602 21604 21606 21608 21610 21612 21614 21616 21618 21620 21622 21624 21626 21628 21630 21632 21634 21636 21638 21640 21642 21644 21646 21648 21650 21652 21654 21656 21658 21660 21662 21664 21666 21668 21670 21672 21674 21676 21678 21680 21682 21684 21686 21688 21690 21692 21694 21696 21698 21700 21702 21704 21706 21708 21710 21712 21714 21716 21718 21720 21722 21724 21726 21764 21766 21768 21770 21772 21774 21776 21778 21780 21782 21784 21786 21788 21790 21792 21794 21796 21798 21800 21802 21804 21806 21808 21810 21812 21814 21816 21818 21820 21822 21824 21826 21828 21830 21832 21834 21836 21838 21840 21842 21844 21846 58751 58752 58753 58755 58757 58759 58761 58763 58765 58767 58769 58771 58773 58775 58777 58779 58781 58783 58785 58787 58789 58791 58793 58795 58797 58799 58801 58803 58805 58807 58809 58811 58813 58815 58817 58819 58821 58823 58825 58827 58829 58831 58833 58836 58871 58872 58873 58875 58877 58879 58881 58883 58885 58887 58889 58891 58893 58895 58897 58899 58901 58903 58905 58907 58909 58911 58913 58915 58917 58919 58921 58923 58925 58927 58929 58931 58933 58935 58937 58939 58941 58943 58945 58947 58949 58951 58953 58955 58957 58959 58961 58963 58965 58967 58969 58971 58973 58975 58977 58979 58981 58983 58985 58987 58989 58991 58993 58995 58997 58999 59001 59003 59005 59007 59009 59011 59013 59015 59017 59019 59022 59057 59058 59059 59061 59063 59065 59067 59069 59071 59073 59075 59077 59079 59081 59083 59085 59087 59089 59091 59093 59095 59097 59099 59101 59103 59105 59107 59109 59111 59113 59115 59117 59119 59121 59123 59125 59127 59129 59131 59133 59135 59137 59139 59142 59147 59149 59150 59236 59238 59240 59242 59244 59246 59248 59250 59252 59254 59256 59258 59260 59262 59264 59266 59268 59270 59422 59424 59426 59428 59430 59432 59434 59436 59438 59440 59442 59444 59446 59448 59450 59452 59454 59456 59542 59544 59546
        </DataArray>
      </PointData>
      <CellData  Scalars="cellIndex PID" Vectors="">
        <DataArray type="Int64" Name="cellIndex" NumberOfComponents="1" format="ascii" >
0 1 2 3 4 5 6 7 8 9 10 11 12 13 14 15 16 17 18 19 20 21 22 23 24 25 26 27 28 29 30 31 32 33 34 35 36 37 38 39 40 41 42 43 44 45 46 47 48 49 50 51 52 53 54 55 56 57 58 59 60 61 62 63 64 65 66 67 68 69 70 71 72 73 74 75 76 77 78 79 80 81 82 83 84 85 86 87 88 89 90 91 92 93 94 95 96 97 98 99 100 101 102 103 104 105 106 107 108 109 110 111 112 113 114 115 116 117 118 119 120 121 122 123 124 125 126 127 128 129 130 131 132 133 134 135 136 137 138 139 140 141 142 143 144 145 146 147 148 149 150 151 152 153 154 155 156 157 158 159 160 161 162 163 164 165 166 167 168 169 170 171 172 173 174 175 176 177 178 179 180 181 182 183 184 185 186 187 188 189 190 191 192 193 194 195 196 197 198 199 200 201 202 203 204 205 206 207 208 209 210 211 212 213 214 215 216 217 218 219 220 221 222 223 224 225 226 227 228 229 230 231 232 233 234 235 236 237 238 239 240 241 242 243 244 245 246 247 248 249 250 251 252 253 254 255 256 257 258 259 260 261 262 263 264 265 266 267 268 269 270 271 272 273 274 275 276 277 278 279 280 281 282 283 284 285 286 287 288 289 290 291 292 293 294 295 296 297 298 299 300 301 302 303 304 305 306 307 308 309 310 311 312 313 314 315 316 317 318 319 320 321 322 323 324 325 326 327 328 329 330 331 332 333 334 335 336 337 338 339 340 341 342 343 344 345 346 347 348 349 350 351 352 353 354 355 356 357 358 359 360 361 362 363 364 365 366 367 368 369 370 371 372 373 374 375 376 377 378 379 380 381 382 383 384 385 386 387 388 389 390 391 392 393 394 395 396 397 398 399 400 401 402 403 404 405 406 407 408 409 410 411
        </DataArray>
        <DataArray type="Int32" Name="PID" NumberOfComponents="1" format="ascii" >
1 1 1 1 1 1 1 1 1 1 1 1 1 1 1 1 1 1 1 1 1 1 1 1 1 1 1 1 1 1 1 1 1 1 1 1 1 1 1 1 1 1 1 1 1 1 1 1 1 1 1 1 1 1 1 1 1 1 1 1 1 1 1 1 1 1 1 1 1 1 1 1 1 1 1 1 1 1 1 1 1 1 1 1 1 1 1 1 1 1 1 1 1 1 1 1 1 1 0 1 0 1 0 1 1 1 1 1 0 1 0 1 0 1 0 0 0 1 0 1 0 1 0 0 0 1 1 1 0 1 0 1 0 1 0 1 0 1 0 1 0 1 0 0 0 1 1 0 1 1 1 0 0 0 1 0 1 0 0 1 0 1 0 0 1 0 0 1 0 0 1 0 0 1 0 0 1 0 0 1 0 0 1 1 1 0 1 0 1 1 1 1 1 0 1 0 1 0 1 0 1 0 1 0 1 0 1 0 1 0 1 0 1 0 1 0 1 0 1 0 1 0 1 0 1 0 1 1 1 1 1 0 1 0 1 0 1 0 1 1 1 1 1 1 1 1 1 1 1 1 1 0 0 0 0 0 0 0 0 0 0 0 0 0 0 0 0 0 0 0 0 0 0 0 0 0 0 0 0 0 0 0 0 0 0 0 0 0 0 0 0 0 0 0 0 0 0 0 0 0 0 0 0 0 0 0 0 0 0 0 0 0 0 0 0 0 0 0 0 0 0 0 0 0 0 0 0 0 0 0 0 0 0 0 0 0 0 0 0 0 0 0 0 0 1 0 1 0 1 0 0 0 0 0 0 0 1 0 0 0 0 1 0 1 0 1 0 1 0 1 0 1 0 1 0 1 0 1 0 1 0 1 0 1 0 1 0 1 0 1 0 1 0 1 0 1 0 1 0 0 0 0 0 0 0 0 0 0 0 0 1 0
        </DataArray>
      </CellData>
      <Points>
        <DataArray type="Float64" Name="Points" NumberOfComponents="3" format="ascii" >
5.00000000e-03 2.64093933e-01 0.00000000e+00 0.00000000e+00 2.63447846e-01 0.00000000e+00 1.00000000e-02 2.64674544e-01 0.00000000e+00 1.31510908e-02 2.65000000e-01 0.00000000e+00 2.25000000e-01 2.64919390e-01 0.00000000e+00 2.20783240e-01 2.65000000e-01 0.00000000e+00 2.30000000e-01 2.64834083e-01 0.00000000e+00 2.35000000e-01 2.64760101e-01 0.00000000e+00 2.40000000e-01 2.64698280e-01 0.00000000e+00 2.45000000e-01 2.64649233e-01 0.00000000e+00 2.50000000e-01 2.64613340e-01 0.00000000e+00 2.55000000e-01 2.64590736e-01 0.00000000e+00 2.60000000e-01 2.64581311e-01 0.00000000e+00 2.65000000e-01 2.64584694e-01 0.00000000e+00 2.70000000e-01 2.64600213e-01 0.00000000e+00 2.75000000e-01 2.64626877e-01 0.00000000e+00 2.80000000e-01 2.64663405e-01 0.00000000e+00 2.85000000e-01 2.64708250e-01 0.00000000e+00 2.90000000e-01 2.64759637e-01 0.00000000e+00 2.95000000e-01 2.64815612e-01 0.00000000e+00 3.00000000e-01 2.64874096e-01 0.00000000e+00 3.05000000e-01 2.64932960e-01 0.00000000e+00 3.10000000e-01 2.64990102e-01 0.00000000e+00 3.10926660e-01 2.65000000e-01 0.00000000e+00 6.90000000e-01 2.64990102e-01 0.00000000e+00 6.89073340e-01 2.65000000e-01 0.00000000e+00 6.95000000e-01 2.64932960e-01 0.00000000e+00 7.00000000e-01 2.64874096e-01 0.00000000e+00 7.05000000e-01 2.64815612e-01 0.00000000e+00 7.10000000e-01 2.64759637e-01 0.00000000e+00 7.15000000e-01 2.64708250e-01 0.00000000e+00 7.20000000e-01 2.64663405e-01 0.00000000e+00 7.25000000e-01 2.64626877e-01 0.00000000e+00 7.30000000e-01 2.64600213e-01 0.00000000e+00 7.35000000e-01 2.64584694e-01 0.00000000e+00 7.40000000e-01 2.64581311e-01 0.00000000e+00 7.45000000e-01 2.64590736e-01 0.00000000e+00 7.50000000e-01 2.64613340e-01 0.00000000e+00 7.55000000e-01 2.64649233e-01 0.00000000e+00 7.60000000e-01 2.64698280e-01 0.00000000e+00 7.65000000e-01 2.64760101e-01 0.00000000e+00 7.70000000e-01 2.64834083e-01 0.00000000e+00 7.75000000e-01 2.64919390e-01 0.00000000e+00 7.79216760e-01 2.65000000e-01 0.00000000e+00 9.90000000e-01 2.64674544e-01 0.00000000e+00 9.86848909e-01 2.65000000e-01 0.00000000e+00 9.95000000e-01 2.64093933e-01 0.00000000e+00 1.00000000e+00 2.63447846e-01 0.00000000e+00 1.50000000e-02 2.65185904e-01 0.00000000e+00 2.00000000e-02 2.65627713e-01 0.00000000e+00 2.50000000e-02 2.66010377e-01 0.00000000e+00 3.00000000e-02 2.66337120e-01 0.00000000e+00 3.50000000e-02 2.66611650e-01 0.00000000e+00 4.00000000e-02 2.66838013e-01 0.00000000e+00 4.50000000e-02 2.67020487e-01 0.00000000e+00 5.00000000e-02 2.67163464e-01 0.00000000e+00 5.50000000e-02 2.67271330e-01 0.00000000e+00 6.00000000e-02 2.67348357e-01 0.00000000e+00 6.50000000e-02 2.67398631e-01 0.00000000e+00 7.00000000e-02 2.67425990e-01 0.00000000e+00 7.50000000e-02 2.67433981e-01 0.00000000e+00 8.00000000e-02 2.67425830e-01 0.00000000e+00 8.50000000e-02 2.67404428e-01 0.00000000e+00 9.00000000e-02 2.67372322e-01 0.00000000e+00 9.50000000e-02 2.67331714e-01 0.00000000e+00 1.00000000e-01 2.67284425e-01 0.00000000e+00 1.05000000e-01 2.67231877e-01 0.00000000e+00 1.10000000e-01 2.67175106e-01 0.00000000e+00 1.15000000e-01 2.67114791e-01 0.00000000e+00 1.20000000e-01 2.67051287e-01 0.00000000e+00 1.25000000e-01 2.66984657e-01 0.00000000e+00 1.30000000e-01 2.66914727e-01 0.00000000e+00 1.35000000e-01 2.66841137e-01 0.00000000e+00 1.40000000e-01 2.66763408e-01 0.00000000e+00 1.45000000e-01 2.66681014e-01 0.00000000e+00 1.50000000e-01 2.66593456e-01 0.00000000e+00 1.55000000e-01 2.66500338e-01 0.00000000e+00 1.60000000e-01 2.66401437e-01 0.00000000e+00 1.65000000e-01 2.66296765e-01 0.00000000e+00 1.70000000e-01 2.66186601e-01 0.00000000e+00 1.75000000e-01 2.66071518e-01 0.00000000e+00 1.80000000e-01 2.65952370e-01 0.00000000e+00 1.85000000e-01 2.65830268e-01 0.00000000e+00 1.90000000e-01 2.65706529e-01 0.00000000e+00 1.95000000e-01 2.65582618e-01 0.00000000e+00 2.00000000e-01 2.65460079e-01 0.00000000e+00 2.05000000e-01 2.65340473e-01 0.00000000e+00 2.10000000e-01 2.65225347e-01 0.00000000e+00 2.15000000e-01 2.65116223e-01 0.00000000e+00 2.20000000e-01 2.65014555e-01 0.00000000e+00 3.15000000e-01 2.65042372e-01 0.00000000e+00 3.20000000e-01 2.65089028e-01 0.00000000e+00 3.25000000e-01 2.65128865e-01 0.00000000e+00 3.30000000e-01 2.65160760e-01 0.00000000e+00 3.35000000e-01 2.65183995e-01 0.00000000e+00 3.40000000e-01 2.65198289e-01 0.00000000e+00 3.45000000e-01 2.65203799e-01 0.00000000e+00 3.50000000e-01 2.65201100e-01 0.00000000e+00 3.55000000e-01 2.65191132e-01 0.00000000e+00 3.60000000e-01 2.65175130e-01 0.00000000e+00 3.65000000e-01 2.65154539e-01 0.00000000e+00 3.70000000e-01 2.65130930e-01 0.00000000e+00 3.75000000e-01 2.65105928e-01 0.00000000e+00 3.80000000e-01 2.65081170e-01 0.00000000e+00 3.85000000e-01 2.65058242e-01 0.00000000e+00 3.90000000e-01 2.65038608e-01 0.00000000e+00 3.95000000e-01 2.65023552e-01 0.00000000e+00 4.00000000e-01 2.65014143e-01 0.00000000e+00 4.05000000e-01 2.65011196e-01 0.00000000e+00 4.10000000e-01 2.65015249e-01 0.00000000e+00 4.15000000e-01 2.65026548e-01 0.00000000e+00 4.20000000e-01 2.65045119e-01 0.00000000e+00 4.25000000e-01 2.65070797e-01 0.00000000e+00 4.30000000e-01 2.65103225e-01 0.00000000e+00 4.35000000e-01 2.65141832e-01 0.00000000e+00 4.40000000e-01 2.65185807e-01 0.00000000e+00 4.45000000e-01 2.65234121e-01 0.00000000e+00 4.50000000e-01 2.65285556e-01 0.00000000e+00 4.55000000e-01 2.65338738e-01 0.00000000e+00 4.60000000e-01 2.65392182e-01 0.00000000e+00 4.65000000e-01 2.65444347e-01 0.00000000e+00 4.70000000e-01 2.65493700e-01 0.00000000e+00 4.75000000e-01 2.65538736e-01 0.00000000e+00 4.80000000e-01 2.65577997e-01 0.00000000e+00 4.85000000e-01 2.65610134e-01 0.00000000e+00 4.90000000e-01 2.65633991e-01 0.00000000e+00 4.95000000e-01 2.65648679e-01 0.00000000e+00 5.00000000e-01 2.65653639e-01 0.00000000e+00 5.05000000e-01 2.65648679e-01 0.00000000e+00 5.10000000e-01 2.65633991e-01 0.00000000e+00 5.15000000e-01 2.65610134e-01 0.00000000e+00 5.20000000e-01 2.65577997e-01 0.00000000e+00 5.25000000e-01 2.65538736e-01 0.00000000e+00 5.30000000e-01 2.65493700e-01 0.00000000e+00 5.35000000e-01 2.65444347e-01 0.00000000e+00 5.40000000e-01 2.65392182e-01 0.00000000e+00 5.45000000e-01 2.65338738e-01 0.00000000e+00 5.50000000e-01 2.65285556e-01 0.00000000e+00 5.55000000e-01 2.65234121e-01 0.00000000e+00 5.60000000e-01 2.65185807e-01 0.00000000e+00 5.65000000e-01 2.65141832e-01 0.00000000e+00 5.70000000e-01 2.65103225e-01 0.00000000e+00 5.75000000e-01 2.65070797e-01 0.00000000e+00 5.80000000e-01 2.65045119e-01 0.00000000e+00 5.85000000e-01 2.65026548e-01 0.00000000e+00 5.90000000e-01 2.65015249e-01 0.00000000e+00 5.95000000e-01 2.65011196e-01 0.00000000e+00 6.00000000e-01 2.65014143e-01 0.00000000e+00 6.05000000e-01 2.65023552e-01 0.00000000e+00 6.10000000e-01 2.65038608e-01 0.00000000e+00 6.15000000e-01 2.65058242e-01 0.00000000e+00 6.20000000e-01 2.65081170e-01 0.00000000e+00 6.25000000e-01 2.65105928e-01 0.00000000e+00 6.30000000e-01 2.65130930e-01 0.00000000e+00 6.35000000e-01 2.65154539e-01 0.00000000e+00 6.40000000e-01 2.65175130e-01 0.00000000e+00 6.45000000e-01 2.65191132e-01 0.00000000e+00 6.50000000e-01 2.65201100e-01 0.00000000e+00 6.55000000e-01 2.65203799e-01 0.00000000e+00 6.60000000e-01 2.65198289e-01 0.00000000e+00 6.65000000e-01 2.65183995e-01 0.00000000e+00 6.70000000e-01 2.65160760e-01 0.00000000e+00 6.75000000e-01 2.65128865e-01 0.00000000e+00 6.80000000e-01 2.65089028e-01 0.00000000e+00 6.85000000e-01 2.65042372e-01 0.00000000e+00 7.80000000e-01 2.65014555e-01 0.00000000e+00 7.85000000e-01 2.65116223e-01 0.00000000e+00 7.90000000e-01 2.65225347e-01 0.00000000e+00 7.95000000e-01 2.65340473e-01 0.00000000e+00 8.00000000e-01 2.65460079e-01 0.00000000e+00 8.05000000e-01 2.65582618e-01 0.00000000e+00 8.10000000e-01 2.65706529e-01 0.00000000e+00 8.15000000e-01 2.65830268e-01 0.00000000e+00 8.20000000e-01 2.65952370e-01 0.00000000e+00 8.25000000e-01 2.66071518e-01 0.00000000e+00 8.30000000e-01 2.66186601e-01 0.00000000e+00 8.35000000e-01 2.66296765e-01 0.00000000e+00 8.40000000e-01 2.66401437e-01 0.00000000e+00 8.45000000e-01 2.66500338e-01 0.00000000e+00 8.50000000e-01 2.66593456e-01 0.00000000e+00 8.55000000e-01 2.66681014e-01 0.00000000e+00 8.60000000e-01 2.66763408e-01 0.00000000e+00 8.65000000e-01 2.66841137e-01 0.00000000e+00 8.70000000e-01 2.66914727e-01 0.00000000e+00 8.75000000e-01 2.66984657e-01 0.00000000e+00 8.80000000e-01 2.67051287e-01 0.00000000e+00 8.85000000e-01 2.67114791e-01 0.00000000e+00 8.90000000e-01 2.67175106e-01 0.00000000e+00 8.95000000e-01 2.67231877e-01 0.00000000e+00 9.00000000e-01 2.67284425e-01 0.00000000e+00 9.05000000e-01 2.67331714e-01 0.00000000e+00 9.10000000e-01 2.67372322e-01 0.00000000e+00 9.15000000e-01 2.67404428e-01 0.00000000e+00 9.20000000e-01 2.67425830e-01 0.00000000e+00 9.25000000e-01 2.67433981e-01 0.00000000e+00 9.30000000e-01 2.67425990e-01 0.00000000e+00 9.35000000e-01 2.67398631e-01 0.00000000e+00 9.40000000e-01 2.67348357e-01 0.00000000e+00 9.45000000e-01 2.67271330e-01 0.00000000e+00 9.50000000e-01 2.67163464e-01 0.00000000e+00 9.55000000e-01 2.67020487e-01 0.00000000e+00 9.60000000e-01 2.66838013e-01 0.00000000e+00 9.65000000e-01 2.66611650e-01 0.00000000e+00 9.70000000e-01 2.66337120e-01 0.00000000e+00 9.75000000e-01 2.66010377e-01 0.00000000e+00 9.80000000e-01 2.65627713e-01 0.00000000e+00 9.85000000e-01 2.65185904e-01 0.00000000e+00 1.50000000e-02 7.34814096e-01 0.00000000e+00 1.31510908e-02 7.35000000e-01 0.00000000e+00 2.00000000e-02 7.34372287e-01 0.00000000e+00 2.50000000e-02 7.33989623e-01 0.00000000e+00 3.00000000e-02 7.33662880e-01 0.00000000e+00 3.50000000e-02 7.33388350e-01 0.00000000e+00 4.00000000e-02 7.33161987e-01 0.00000000e+00 4.50000000e-02 7.32979513e-01 0.00000000e+00 5.00000000e-02 7.32836536e-01 0.00000000e+00 5.50000000e-02 7.32728670e-01 0.00000000e+00 6.00000000e-02 7.32651643e-01 0.00000000e+00 6.50000000e-02 7.32601369e-01 0.00000000e+00 7.00000000e-02 7.32574010e-01 0.00000000e+00 7.50000000e-02 7.32566019e-01 0.00000000e+00 8.00000000e-02 7.32574170e-01 0.00000000e+00 8.50000000e-02 7.32595572e-01 0.00000000e+00 9.00000000e-02 7.32627678e-01 0.00000000e+00 9.50000000e-02 7.32668286e-01 0.00000000e+00 1.00000000e-01 7.32715575e-01 0.00000000e+00 1.05000000e-01 7.32768123e-01 0.00000000e+00 1.10000000e-01 7.32824894e-01 0.00000000e+00 1.15000000e-01 7.32885209e-01 0.00000000e+00 1.20000000e-01 7.32948713e-01 0.00000000e+00 1.25000000e-01 7.33015343e-01 0.00000000e+00 1.30000000e-01 7.33085273e-01 0.00000000e+00 1.35000000e-01 7.33158863e-01 0.00000000e+00 1.40000000e-01 7.33236592e-01 0.00000000e+00 1.45000000e-01 7.33318986e-01 0.00000000e+00 1.50000000e-01 7.33406544e-01 0.00000000e+00 1.55000000e-01 7.33499662e-01 0.00000000e+00 1.60000000e-01 7.33598563e-01 0.00000000e+00 1.65000000e-01 7.33703235e-01 0.00000000e+00 1.70000000e-01 7.33813399e-01 0.00000000e+00 1.75000000e-01 7.33928482e-01 0.00000000e+00 1.80000000e-01 7.34047630e-01 0.00000000e+00 1.85000000e-01 7.34169732e-01 0.00000000e+00 1.90000000e-01 7.34293471e-01 0.00000000e+00 1.95000000e-01 7.34417382e-01 0.00000000e+00 2.00000000e-01 7.34539921e-01 0.00000000e+00 2.05000000e-01 7.34659527e-01 0.00000000e+00 2.10000000e-01 7.34774653e-01 0.00000000e+00 2.15000000e-01 7.34883777e-01 0.00000000e+00 2.20000000e-01 7.34985445e-01 0.00000000e+00 2.20783240e-01 7.35000000e-01 0.00000000e+00 3.15000000e-01 7.34957628e-01 0.00000000e+00 3.10926660e-01 7.35000000e-01 0.00000000e+00 3.20000000e-01 7.34910972e-01 0.00000000e+00 3.25000000e-01 7.34871135e-01 0.00000000e+00 3.30000000e-01 7.34839240e-01 0.00000000e+00 3.35000000e-01 7.34816005e-01 0.00000000e+00 3.40000000e-01 7.34801711e-01 0.00000000e+00 3.45000000e-01 7.34796201e-01 0.00000000e+00 3.50000000e-01 7.34798900e-01 0.00000000e+00 3.55000000e-01 7.34808868e-01 0.00000000e+00 3.60000000e-01 7.34824870e-01 0.00000000e+00 3.65000000e-01 7.34845461e-01 0.00000000e+00 3.70000000e-01 7.34869070e-01 0.00000000e+00 3.75000000e-01 7.34894072e-01 0.00000000e+00 3.80000000e-01 7.34918830e-01 0.00000000e+00 3.85000000e-01 7.34941758e-01 0.00000000e+00 3.90000000e-01 7.34961392e-01 0.00000000e+00 3.95000000e-01 7.34976448e-01 0.00000000e+00 4.00000000e-01 7.34985857e-01 0.00000000e+00 4.05000000e-01 7.34988804e-01 0.00000000e+00 4.10000000e-01 7.34984751e-01 0.00000000e+00 4.15000000e-01 7.34973452e-01 0.00000000e+00 4.20000000e-01 7.34954881e-01 0.00000000e+00 4.25000000e-01 7.34929203e-01 0.00000000e+00 4.30000000e-01 7.34896775e-01 0.00000000e+00 4.35000000e-01 7.34858168e-01 0.00000000e+00 4.40000000e-01 7.34814193e-01 0.00000000e+00 4.45000000e-01 7.34765879e-01 0.00000000e+00 4.50000000e-01 7.34714444e-01 0.00000000e+00 4.55000000e-01 7.34661262e-01 0.00000000e+00 4.60000000e-01 7.34607818e-01 0.00000000e+00 4.65000000e-01 7.34555653e-01 0.00000000e+00 4.70000000e-01 7.34506300e-01 0.00000000e+00 4.75000000e-01 7.34461264e-01 0.00000000e+00 4.80000000e-01 7.34422003e-01 0.00000000e+00 4.85000000e-01 7.34389866e-01 0.00000000e+00 4.90000000e-01 7.34366009e-01 0.00000000e+00 4.95000000e-01 7.34351321e-01 0.00000000e+00 5.00000000e-01 7.34346361e-01 0.00000000e+00 5.05000000e-01 7.34351321e-01 0.00000000e+00 5.10000000e-01 7.34366009e-01 0.00000000e+00 5.15000000e-01 7.34389866e-01 0.00000000e+00 5.20000000e-01 7.34422003e-01 0.00000000e+00 5.25000000e-01 7.34461264e-01 0.00000000e+00 5.30000000e-01 7.34506300e-01 0.00000000e+00 5.35000000e-01 7.34555653e-01 0.00000000e+00 5.40000000e-01 7.34607818e-01 0.00000000e+00 5.45000000e-01 7.34661262e-01 0.00000000e+00 5.50000000e-01 7.34714444e-01 0.00000000e+00 5.55000000e-01 7.34765879e-01 0.00000000e+00 5.60000000e-01 7.34814193e-01 0.00000000e+00 5.65000000e-01 7.34858168e-01 0.00000000e+00 5.70000000e-01 7.34896775e-01 0.00000000e+00 5.75000000e-01 7.34929203e-01 0.00000000e+00 5.80000000e-01 7.34954881e-01 0.00000000e+00 5.85000000e-01 7.34973452e-01 0.00000000e+00 5.90000000e-01 7.34984751e-01 0.00000000e+00 5.95000000e-01 7.34988804e-01 0.00000000e+00 6.00000000e-01 7.34985857e-01 0.00000000e+00 6.05000000e-01 7.34976448e-01 0.00000000e+00 6.10000000e-01 7.34961392e-01 0.00000000e+00 6.15000000e-01 7.34941758e-01 0.00000000e+00 6.20000000e-01 7.34918830e-01 0.00000000e+00 6.25000000e-01 7.34894072e-01 0.00000000e+00 6.30000000e-01 7.34869070e-01 0.00000000e+00 6.35000000e-01 7.34845461e-01 0.00000000e+00 6.40000000e-01 7.34824870e-01 0.00000000e+00 6.45000000e-01 7.34808868e-01 0.00000000e+00 6.50000000e-01 7.34798900e-01 0.00000000e+00 6.55000000e-01 7.34796201e-01 0.00000000e+00 6.60000000e-01 7.34801711e-01 0.00000000e+00 6.65000000e-01 7.34816005e-01 0.00000000e+00 6.70000000e-01 7.34839240e-01 0.00000000e+00 6.75000000e-01 7.34871135e-01 0.00000000e+00 6.80000000e-01 7.34910972e-01 0.00000000e+00 6.85000000e-01 7.34957628e-01 0.00000000e+00 6.89073340e-01 7.35000000e-01 0.00000000e+00 7.80000000e-01 7.34985445e-01 0.00000000e+00 7.79216760e-01 7.35000000e-01 0.00000000e+00 7.85000000e-01 7.34883777e-01 0.00000000e+00 7.90000000e-01 7.34774653e-01 0.00000000e+00 7.95000000e-01 7.34659527e-01 0.00000000e+00 8.00000000e-01 7.34539921e-01 0.00000000e+00 8.05000000e-01 7.34417382e-01 0.00000000e+00 8.10000000e-01 7.34293471e-01 0.00000000e+00 8.15000000e-01 7.34169732e-01 0.00000000e+00 8.20000000e-01 7.34047630e-01 0.00000000e+00 8.25000000e-01 7.33928482e-01 0.00000000e+00 8.30000000e-01 7.33813399e-01 0.00000000e+00 8.35000000e-01 7.33703235e-01 0.00000000e+00 8.40000000e-01 7.33598563e-01 0.00000000e+00 8.45000000e-01 7.33499662e-01 0.00000000e+00 8.50000000e-01 7.33406544e-01 0.00000000e+00 8.55000000e-01 7.33318986e-01 0.00000000e+00 8.60000000e-01 7.33236592e-01 0.00000000e+00 8.65000000e-01 7.33158863e-01 0.00000000e+00 8.70000000e-01 7.33085273e-01 0.00000000e+00 8.75000000e-01 7.33015343e-01 0.00000000e+00 8.80000000e-01 7.32948713e-01 0.00000000e+00 8.85000000e-01 7.32885209e-01 0.00000000e+00 8.90000000e-01 7.32824894e-01 0.00000000e+00 8.95000000e-01 7.32768123e-01 0.00000000e+00 9.00000000e-01 7.32715575e-01 0.00000000e+00 9.05000000e-01 7.32668286e-01 0.00000000e+00 9.10000000e-01 7.32627678e-01 0.00000000e+00 9.15000000e-01 7.32595572e-01 0.00000000e+00 9.20000000e-01 7.32574170e-01 0.00000000e+00 9.25000000e-01 7.32566019e-01 0.00000000e+00 9.30000000e-01 7.32574010e-01 0.00000000e+00 9.35000000e-01 7.32601369e-01 0.00000000e+00 9.40000000e-01 7.32651643e-01 0.00000000e+00 9.45000000e-01 7.32728670e-01 0.00000000e+00 9.50000000e-01 7.32836536e-01 0.00000000e+00 9.55000000e-01 7.32979513e-01 0.00000000e+00 9.60000000e-01 7.33161987e-01 0.00000000e+00 9.65000000e-01 7.33388350e-01 0.00000000e+00 9.70000000e-01 7.33662880e-01 0.00000000e+00 9.75000000e-01 7.33989623e-01 0.00000000e+00 9.80000000e-01 7.34372287e-01 0.00000000e+00 9.85000000e-01 7.34814096e-01 0.00000000e+00 9.86848909e-01 7.35000000e-01 0.00000000e+00 5.00000000e-03 7.35906067e-01 0.00000000e+00 0.00000000e+00 7.36552154e-01 0.00000000e+00 1.00000000e-02 7.35325456e-01 0.00000000e+00 2.25000000e-01 7.35080610e-01 0.00000000e+00 2.30000000e-01 7.35165917e-01 0.00000000e+00 2.35000000e-01 7.35239899e-01 0.00000000e+00 2.40000000e-01 7.35301720e-01 0.00000000e+00 2.45000000e-01 7.35350767e-01 0.00000000e+00 2.50000000e-01 7.35386660e-01 0.00000000e+00 2.55000000e-01 7.35409264e-01 0.00000000e+00 2.60000000e-01 7.35418689e-01 0.00000000e+00 2.65000000e-01 7.35415306e-01 0.00000000e+00 2.70000000e-01 7.35399787e-01 0.00000000e+00 2.75000000e-01 7.35373123e-01 0.00000000e+00 2.80000000e-01 7.35336595e-01 0.00000000e+00 2.85000000e-01 7.35291750e-01 0.00000000e+00 2.90000000e-01 7.35240363e-01 0.00000000e+00 2.95000000e-01 7.35184388e-01 0.00000000e+00 3.00000000e-01 7.35125904e-01 0.00000000e+00 3.05000000e-01 7.35067040e-01 0.00000000e+00 3.10000000e-01 7.35009898e-01 0.00000000e+00 6.90000000e-01 7.35009898e-01 0.00000000e+00 6.95000000e-01 7.35067040e-01 0.00000000e+00 7.00000000e-01 7.35125904e-01 0.00000000e+00 7.05000000e-01 7.35184388e-01 0.00000000e+00 7.10000000e-01 7.35240363e-01 0.00000000e+00 7.15000000e-01 7.35291750e-01 0.00000000e+00 7.20000000e-01 7.35336595e-01 0.00000000e+00 7.25000000e-01 7.35373123e-01 0.00000000e+00 7.30000000e-01 7.35399787e-01 0.00000000e+00 7.35000000e-01 7.35415306e-01 0.00000000e+00 7.40000000e-01 7.35418689e-01 0.00000000e+00 7.45000000e-01 7.35409264e-01 0.00000000e+00 7.50000000e-01 7.35386660e-01 0.00000000e+00 7.55000000e-01 7.35350767e-01 0.00000000e+00 7.60000000e-01 7.35301720e-01 0.00000000e+00 7.65000000e-01 7.35239899e-01 0.00000000e+00 7.70000000e-01 7.35165917e-01 0.00000000e+00 7.75000000e-01 7.35080610e-01 0.00000000e+00 9.90000000e-01 7.35325456e-01 0.00000000e+00 9.95000000e-01 7.35906067e-01 0.00000000e+00 1.00000000e+00 7.36552154e-01 0.00000000e+00
        </DataArray>
      </Points>
      <Cells>
        <DataArray type="Int32" Name="offsets" NumberOfComponents="1" format="ascii" >
2 4 6 8 10 12 14 16 18 20 22 24 26 28 30 32 34 36 38 40 42 44 46 48 50 52 54 56 58 60 62 64 66 68 70 72 74 76 78 80 82 84 86 88 90 92 94 96 98 100 102 104 106 108 110 112 114 116 118 120 122 124 126 128 130 132 134 136 138 140 142 144 146 148 150 152 154 156 158 160 162 164 166 168 170 172 174 176 178 180 182 184 186 188 190 192 194 196 198 200 202 204 206 208 210 212 214 216 218 220 222 224 226 228 230 232 234 236 238 240 242 244 246 248 250 252 254 256 258 260 262 264 266 268 270 272 274 276 278 280 282 284 286 288 290 292 294 296 298 300 302 304 306 308 310 312 314 316 318 320 322 324 326 328 330 332 334 336 338 340 342 344 346 348 350 352 354 356 358 360 362 364 366 368 370 372 374 376 378 380 382 384 386 388 390 392 394 396 398 400 402 404 406 408 410 412 414 416 418 420 422 424 426 428 430 432 434 436 438 440 442 444 446 448 450 452 454 456 458 460 462 464 466 468 470 472 474 476 478 480 482 484 486 488 490 492 494 496 498 500 502 504 506 508 510 512 514 516 518 520 522 524 526 528 530 532 534 536 538 540 542 544 546 548 550 552 554 556 558 560 562 564 566 568 570 572 574 576 578 580 582 584 586 588 590 592 594 596 598 600 602 604 606 608 610 612 614 616 618 620 622 624 626 628 630 632 634 636 638 640 642 644 646 648 650 652 654 656 658 660 662 664 666 668 670 672 674 676 678 680 682 684 686 688 690 692 694 696 698 700 702 704 706 708 710 712 714 716 718 720 722 724 726 728 730 732 734 736 738 740 742 744 746 748 750 752 754 756 758 760 762 764 766 768 770 772 774 776 778 780 782 784 786 788 790 792 794 796 798 800 802 804 806 808 810 812 814 816 818 820 822 824
        </DataArray>
        <DataArray type="Int32" Name="types" NumberOfComponents="1" format="ascii" >
3 3 3 3 3 3 3 3 3 3 3 3 3 3 3 3 3 3 3 3 3 3 3 3 3 3 3 3 3 3 3 3 3 3 3 3 3 3 3 3 3 3 3 3 3 3 3 3 3 3 3 3 3 3 3 3 3 3 3 3 3 3 3 3 3 3 3 3 3 3 3 3 3 3 3 3 3 3 3 3 3 3 3 3 3 3 3 3 3 3 3 3 3 3 3 3 3 3 3 3 3 3 3 3 3 3 3 3 3 3 3 3 3 3 3 3 3 3 3 3 3 3 3 3 3 3 3 3 3 3 3 3 3 3 3 3 3 3 3 3 3 3 3 3 3 3 3 3 3 3 3 3 3 3 3 3 3 3 3 3 3 3 3 3 3 3 3 3 3 3 3 3 3 3 3 3 3 3 3 3 3 3 3 3 3 3 3 3 3 3 3 3 3 3 3 3 3 3 3 3 3 3 3 3 3 3 3 3 3 3 3 3 3 3 3 3 3 3 3 3 3 3 3 3 3 3 3 3 3 3 3 3 3 3 3 3 3 3 3 3 3 3 3 3 3 3 3 3 3 3 3 3 3 3 3 3 3 3 3 3 3 3 3 3 3 3 3 3 3 3 3 3 3 3 3 3 3 3 3 3 3 3 3 3 3 3 3 3 3 3 3 3 3 3 3 3 3 3 3 3 3 3 3 3 3 3 3 3 3 3 3 3 3 3 3 3 3 3 3 3 3 3 3 3 3 3 3 3 3 3 3 3 3 3 3 3 3 3 3 3 3 3 3 3 3 3 3 3 3 3 3 3 3 3 3 3 3 3 3 3 3 3 3 3 3 3 3 3 3 3 3 3 3 3 3 3 3 3 3 3 3 3 3 3 3 3 3 3 3 3 3 3 3 3 3 3 3 3 3 3 3 3 3 3 3 3 3 3 3 3 3 3
        </DataArray>
        <DataArray type="Int32" Name="connectivity" NumberOfComponents="1" format="ascii" >