<VTKFile type="UnstructuredGrid" version="1.0" byte_order="LittleEndian" header_type="UInt64">
  <UnstructuredGrid>
    <Piece NumberOfPoints="2445" NumberOfCells="2445">
      <PointData>
        <DataArray type="Int64" Name="vtkOriginalPointIds" format="ascii" RangeMin="0" RangeMax="2474">
          0 1 2 3 4 5
          6 7 8 9 10 11
          12 13 14 15 16 17
          18 19 20 21 22 23
          24 25 26 27 28 29
          30 31 32 33 34 35
          36 37 38 39 40 41
          42 43 44 45 46 47
          48 49 50 51 52 53
          54 55 56 57 58 59
          60 61 62 63 64 65
          66 67 68 69 70 71
          72 73 74 75 76 77
          79 80 81 82 83 84
          85 86 87 88 89 90
          91 92 93 94 95 97
          98 99 100 101 102 103
          104 105 106 107 108 109
          110 111 112 113 114 115
          116 117 118 119 120 121
          122 123 124 125 126 127
          128 129 130 131 132 133
          134 135 136 137 138 139
          140 141 142 143 144 145
          146 147 148 149 150 152
          153 154 155 156 157 158
          159 160 161 162 163 164
          165 166 167 168 169 170
          171 172 173 174 175 176
          177 178 179 180 181 182
          183 184 185 186 187 188
          189 190 191 192 193 194
          195 196 197 198 199 200
          201 202 203 204 205 206
          207 208 209 210 211 212
          213 214 216 217 218 219
          220 221 222 223 224 225
          226 227 228 229 230 231
          232 233 234 235 236 237
          238 239 240 241 242 243
          244 245 246 247 248 249
          250 251 252 253 254 255
          256 257 258 259 260 261
          262 263 264 265 266 267
          268 269 270 271 272 273
          274 275 276 277 278 279
          281 282 283 284 285 286
          287 288 289 290 291 292
          293 294 295 296 297 298
          299 300 301 302 303 304
          305 306 307 308 309 310
          311 312 313 314 315 316
          317 318 319 320 321 322
          323 324 325 326 327 328
          329 330 331 333 334 335
          336 337 338 339 340 341
          342 343 344 345 346 347
          348 349 350 351 352 353
          354 355 356 357 358 359
          360 361 362 363 364 365
          366 367 368 369 370 371
          372 373 374 375 376 377
          378 379 380 381 382 383
          384 385 386 387 388 389
          390 391 392 393 394 395
          396 397 398 399 400 401
          402 403 404 405 406 407
          408 409 410 411 412 414
          415 416 417 418 419 420
          421 422 423 424 425 426
          427 428 429 430 431 432
          433 435 436 437 438 439
          440 441 442 443 444 445
          446 447 448 449 450 451
          452 453 454 455 456 457
          458 459 460 461 462 463
          464 465 466 467 468 469
          470 471 472 473 474 475
          476 477 478 479 480 481
          482 483 484 485 486 487
          488 489 490 491 492 493
          494 495 496 497 498 499
          500 501 502 503 504 505
          506 507 508 509 510 511
          512 513 514 515 516 517
          518 519 520 521 522 523
          524 525 526 527 528 529
          530 531 532 533 534 535
          536 537 538 539 540 541
          542 543 544 545 546 547
          548 549 550 551 552 553
          554 555 556 557 558 559
          560 561 562 563 564 565
          566 567 568 569 570 571
          572 573 574 575 576 577
          578 579 580 581 582 583
          584 585 586 587 588 589
          590 591 592 593 594 595
          596 597 598 599 600 601
          602 603 604 605 606 607
          608 609 610 611 612 613
          614 615 616 617 618 620
          621 622 623 624 625 626
          627 628 629 630 631 632
          633 634 635 636 637 638
          639 640 641 642 643 644
          645 646 647 648 649 650
          651 652 653 654 655 656
          657 658 659 660 661 662
          663 664 665 667 668 669
          670 671 672 673 674 675
          676 677 678 679 680 681
          682 683 684 685 686 687
          688 689 690 691 692 693
          694 695 696 697 698 699
          700 701 702 703 704 705
          706 707 708 709 710 711
          712 713 714 715 716 717
          718 719 720 721 722 723
          724 725 726 727 728 729
          730 731 733 734 735 736
          737 738 739 740 741 742
          743 744 745 746 747 748
          749 750 751 752 753 754
          755 756 757 758 759 760
          761 762 763 764 765 766
          767 768 769 770 771 772
          773 774 775 776 777 778
          779 780 781 782 783 784
          785 786 787 788 789 790
          791 792 793 794 795 796
          797 798 799 800 801 802
          803 804 806 807 808 809
          810 811 812 813 814 815
          816 817 818 819 820 821
          822 823 824 825 826 827
          828 829 830 831 832 833
          834 835 836 837 838 839
          840 841 842 843 844 845
          846 847 848 849 850 851
          852 853 854 855 856 857
          858 859 860 861 862 863
          864 865 866 867 868 869
          870 871 872 873 874 875
          876 877 878 879 880 881
          882 883 884 885 886 887
          888 889 890 891 892 893
          894 895 896 897 898 899
          900 901 902 903 904 905
          906 907 908 909 910 911
          912 913 914 915 916 917
          918 919 920 921 922 923
          924 925 926 927 928 929
          930 932 933 934 935 936
          937 938 940 941 942 943
          944 945 946 947 948 949
          950 951 952 953 954 955
          956 957 958 959 960 961
          962 963 964 965 966 967
          968 969 970 972 973 974
          975 976 977 978 979 980
          981 982 983 984 985 986
          987 988 989 990 991 992
          993 994 995 996 997 998
          999 1000 1001 1003 1004 1005
          1006 1007 1008 1009 1010 1011
          1012 1013 1014 1015 1016 1017
          1018 1019 1020 1021 1022 1023
          1024 1025 1026 1027 1028 1029
          1030 1031 1032 1033 1034 1035
          1036 1037 1038 1039 1040 1041
          1042 1043 1044 1045 1046 1047
          1048 1049 1050 1051 1052 1053
          1054 1055 1056 1057 1058 1059
          1060 1061 1062 1063 1064 1065
          1066 1067 1068 1069 1070 1071
          1072 1073 1074 1075 1076 1077
          1078 1079 1080 1081 1082 1083
          1084 1085 1086 1087 1088 1089
          1090 1091 1092 1093 1094 1095
          1096 1097 1098 1099 1100 1101
          1102 1103 1104 1105 1106 1107
          1108 1109 1110 1111 1112 1113
          1114 1115 1116 1117 1118 1119
          1120 1121 1122 1123 1124 1125
          1126 1127 1128 1129 1130 1131
          1132 1133 1134 1135 1136 1137
          1138 1139 1140 1141 1142 1143
          1144 1145 1146 1147 1148 1149
          1150 1151 1152 1153 1154 1155
          1156 1157 1158 1159 1160 1161
          1162 1163 1164 1165 1166 1167
          1168 1169 1170 1171 1172 1173
          1174 1175 1176 1177 1178 1179
          1180 1181 1182 1183 1184 1185
          1186 1187 1188 1189 1190 1191
          1192 1193 1194 1195 1196 1197
          1199 1200 1201 1202 1203 1204
          1205 1206 1207 1208 1209 1210
          1211 1212 1213 1214 1215 1216
          1217 1218 1219 1220 1221 1222
          1223 1224 1225 1226 1227 1228
          1229 1230 1231 1232 1233 1234
          1235 1236 1237 1238 1239 1240
          1241 1242 1243 1244 1245 1246
          1247 1248 1249 1250 1251 1252
          1253 1254 1255 1256 1257 1258
          1259 1260 1261 1262 1263 1264
          1265 1266 1267 1268 1269 1270
          1271 1272 1273 1274 1275 1276
          1277 1278 1279 1280 1281 1282
          1283 1284 1285 1286 1287 1288
          1289 1290 1291 1292 1293 1294
          1295 1296 1297 1298 1299 1300
          1301 1302 1303 1304 1305 1306
          1307 1308 1309 1310 1311 1312
          1313 1314 1315 1316 1317 1318
          1319 1320 1321 1322 1323 1324
          1325 1326 1327 1328 1329 1330
          1331 1332 1333 1334 1335 1336
          1337 1338 1339 1340 1341 1342
          1343 1344 1345 1346 1347 1348
          1349 1350 1351 1352 1353 1354
          1355 1356 1357 1358 1359 1360
          1361 1362 1363 1364 1365 1366
          1367 1368 1369 1370 1371 1372
          1373 1374 1375 1376 1377 1378
          1379 1380 1381 1382 1383 1384
          1385 1386 1387 1388 1389 1390
          1391 1392 1393 1394 1395 1396
          1397 1398 1399 1400 1401 1402
          1403 1404 1405 1406 1407 1408
          1409 1410 1411 1412 1413 1414
          1415 1416 1417 1418 1419 1420
          1421 1422 1423 1424 1425 1426
          1427 1428 1429 1430 1431 1432
          1433 1434 1435 1436 1437 1438
          1439 1440 1441 1442 1443 1444
          1445 1446 1447 1448 1449 1450
          1451 1452 1453 1454 1455 1456
          1457 1458 1459 1460 1461 1462
          1463 1464 1465 1466 1467 1468
          1469 1470 1471 1472 1473 1474
          1475 1476 1477 1478 1479 1480
          1481 1482 1483 1484 1485 1486
          1487 1488 1489 1490 1491 1492
          1493 1494 1495 1496 1497 1498
          1499 1500 1501 1502 1503 1504
          1505 1506 1507 1508 1509 1510
          1511 1512 1513 1514 1515 1516
          1517 1518 1519 1520 1521 1522
          1523 1524 1525 1526 1527 1528
          1529 1530 1531 1532 1533 1534
          1535 1536 1537 1538 1539 1540
          1541 1542 1543 1544 1545 1546
          1547 1548 1549 1550 1551 1552
          1553 1554 1555 1556 1557 1558
          1559 1560 1561 1562 1563 1564
          1565 1566 1567 1568 1569 1570
          1571 1572 1573 1574 1575 1576
          1577 1578 1579 1580 1581 1582
          1583 1584 1585 1586 1587 1588
          1589 1590 1591 1592 1593 1594
          1595 1596 1597 1598 1599 1600
          1601 1602 1603 1604 1605 1606
          1607 1608 1609 1610 1611 1612
          1613 1614 1615 1616 1617 1618
          1619 1620 1621 1622 1623 1624
          1625 1626 1627 1628 1629 1630
          1631 1632 1633 1634 1636 1637
          1638 1639 1640 1642 1643 1644
          1645 1646 1647 1648 1649 1650
          1651 1652 1653 1654 1655 1656
          1657 1658 1659 1660 1661 1662
          1663 1664 1665 1666 1667 1668
          1669 1670 1671 1672 1673 1674
          1675 1676 1677 1678 1679 1680
          1681 1682 1683 1684 1685 1686
          1687 1688 1689 1690 1691 1692
          1693 1694 1695 1696 1697 1698
          1699 1700 1701 1702 1703 1704
          1705 1706 1707 1708 1709 1710
          1711 1712 1713 1714 1715 1716
          1717 1718 1719 1720 1721 1722
          1723 1724 1725 1726 1727 1728
          1729 1730 1731 1732 1733 1734
          1736 1737 1738 1739 1740 1741
          1742 1743 1744 1745 1746 1747
          1748 1749 1750 1751 1752 1753
          1754 1755 1756 1757 1758 1759
          1760 1761 1762 1763 1764 1765
          1766 1767 1768 1769 1770 1771
          1772 1773 1774 1775 1776 1777
          1778 1779 1780 1781 1782 1783
          1784 1785 1786 1787 1788 1789
          1790 1791 1792 1793 1794 1795
          1796 1797 1798 1799 1800 1801
          1802 1803 1804 1805 1806 1808
          1809 1810 1811 1812 1813 1814
          1815 1816 1817 1818 1819 1820
          1821 1822 1823 1824 1825 1826
          1827 1828 1829 1830 1831 1832
          1833 1834 1835 1836 1837 1838
          1839 1840 1841 1842 1843 1844
          1845 1846 1847 1848 1849 1850
          1851 1852 1853 1854 1855 1856
          1857 1858 1859 1860 1861 1862
          1863 1864 1865 1866 1867 1868
          1869 1870 1871 1872 1873 1874
          1875 1876 1877 1878 1879 1880
          1881 1882 1883 1884 1885 1886
          1887 1888 1889 1890 1891 1892
          1893 1894 1895 1896 1897 1898
          1899 1900 1901 1902 1903 1904
          1905 1906 1907 1908 1909 1910
          1911 1912 1913 1914 1915 1916
          1917 1918 1919 1920 1921 1922
          1923 1924 1925 1926 1927 1928
          1929 1930 1931 1932 1933 1934
          1935 1936 1937 1938 1939 1940
          1941 1942 1943 1944 1945 1946
          1947 1948 1949 1950 1951 1952
          1953 1954 1955 1956 1957 1958
          1959 1960 1961 1962 1963 1964
          1965 1966 1967 1968 1969 1970
          1971 1972 1973 1974 1975 1976
          1977 1978 1979 1980 1981 1982
          1983 1984 1985 1986 1987 1988
          1989 1990 1991 1992 1993 1994
          1995 1996 1997 1998 1999 2000
          2001 2002 2003 2004 2005 2006
          2007 2008 2009 2010 2011 2012
          2013 2014 2015 2016 2017 2018
          2019 2020 2021 2022 2023 2024
          2025 2026 2027 2028 2029 2030
          2031 2032 2033 2034 2035 2036
          2037 2038 2039 2040 2041 2042
          2043 2044 2045 2046 2047 2048
          2049 2050 2051 2052 2053 2054
          2055 2056 2057 2058 2059 2060
          2061 2062 2063 2064 2065 2066
          2067 2068 2069 2070 2071 2072
          2073 2074 2075 2076 2077 2078
          2079 2081 2082 2083 2084 2085
          2086 2087 2088 2089 2090 2091
          2092 2093 2094 2095 2096 2097
          2098 2099 2100 2101 2102 2103
          2104 2105 2106 2107 2108 2109
          2110 2111 2112 2113 2114 2115
          2116 2117 2118 2119 2120 2121
          2122 2123 2124 2125 2126 2127
          2128 2129 2130 2131 2132 2133
          2134 2135 2136 2137 2138 2139
          2140 2141 2142 2143 2144 2145
          2146 2147 2148 2149 2150 2151
          2152 2153 2154 2155 2156 2157
          2158 2159 2160 2161 2162 2163
          2164 2165 2166 2167 2168 2169
          2170 2171 2172 2173 2174 2175
          2176 2177 2178 2179 2180 2181
          2182 2183 2184 2185 2186 2187
          2188 2189 2190 2191 2192 2193
          2194 2195 2196 2197 2198 2199
          2200 2201 2202 2203 2204 2205
          2207 2208 2209 2210 2211 2212
          2214 2215 2216 2217 2218 2219
          2220 2221 2222 2223 2224 2225
          2226 2227 2228 2229 2230 2231
          2232 2233 2234 2235 2236 2237
          2238 2239 2240 2241 2242 2243
          2244 2245 2246 2247 2248 2249
          2250 2251 2252 2253 2255 2256
          2257 2258 2259 2260 2261 2262
          2263 2264 2265 2266 2267 2270
          2271 2272 2273 2274 2275 2276
          2277 2278 2279 2280 2281 2282
          2283 2284 2285 2286 2287 2289
          2290 2291 2292 2293 2294 2295
          2296 2297 2298 2299 2300 2301
          2302 2303 2304 2305 2306 2307
          2308 2309 2310 2311 2312 2313
          2314 2315 2316 2317 2318 2319
          2320 2321 2322 2323 2324 2325
          2326 2327 2328 2329 2330 2331
          2332 2333 2334 2335 2336 2337
          2338 2339 2340 2341 2342 2343
          2344 2345 2346 2347 2348 2349
          2350 2351 2352 2353 2354 2355
          2356 2357 2358 2359 2360 2361
          2362 2363 2364 2365 2366 2367
          2368 2369 2370 2371 2372 2373
          2374 2375 2376 2377 2379 2380
          2381 2382 2383 2384 2385 2386
          2387 2388 2389 2390 2391 2392
          2393 2394 2395 2396 2397 2398
          2399 2400 2401 2402 2403 2404
          2405 2406 2407 2408 2409 2410
          2411 2412 2413 2414 2415 2416
          2417 2418 2419 2420 2421 2422
          2423 2425 2426 2427 2428 2429
          2430 2431 2432 2433 2434 2435
          2436 2437 2438 2439 2440 2441
          2442 2443 2444 2445 2446 2447
          2448 2449 2450 2451 2452 2453
          2454 2455 2456 2457 2458 2459
          2460 2461 2462 2463 2464 2465
          2466 2467 2468 2469 2470 2471
          2472 2473 2474
        </DataArray>
      </PointData>
      <CellData>
      </CellData>
      <Points>
        <DataArray type="Float32" Name="Points" NumberOfComponents="3" format="ascii" RangeMin="0.49999997987736544" RangeMax="0.5000000189915986">
          0.003147867741063237 0 0.4999901056289673 0.0008210945525206625 0.00303889368660748 0.4999901056289673
          -0.0029813400469720364 0.001010288018733263 0.4999901056289673 -0.0021835288498550653 -0.002267437521368265 0.4999901056289673
          0 0 -0.5 0.0022946966346353292 0.0021548636723309755 -0.4999901056289673
          0.00019765624892897904 0.0031416560523211956 -0.4999901056289673 -0.0028312087524682283 -0.0013759825378656387 -0.4999901056289673
          0.0029813400469720364 -0.001010288018733263 -0.4999901056289673 0.2576839029788971 0 0.4284845292568207
          0.34508129954338074 0.004336647689342499 0.3618011772632599 0.3956051170825958 0.004971582442522049 0.3057316839694977
          0.4822080433368683 0 0.13219459354877472 0.4944985806941986 0.006214379332959652 -0.07370579242706299
          0.4430862367153168 0.005568278953433037 -0.23161081969738007 0.37971264123916626 0.004771860782057047 -0.32526227831840515
          0.22739790380001068 0.002857716754078865 -0.44528868794441223 0.018882839009165764 0 -0.49964332580566406
          0.12759464979171753 0.0032074786722660065 0.48343491554260254 0.44727516174316406 0.011243618093430996 0.22320063412189484
          0.4444302022457123 0.011172101832926273 -0.2288164496421814 0.012581276707351208 0.00047452779836021364 0.49984145164489746
          0.4066111743450165 0.015336146578192711 0.2905721068382263 0.4190087914466858 0.0158037468791008 0.2723635137081146
          0.4602457284927368 0.01735907979309559 -0.1946086883544922 0.4102349877357483 0.01547282561659813 -0.28542572259902954
          0.2992542088031769 0.011286965571343899 -0.40039920806884766 0.16057875752449036 0.008078373968601227 0.47344398498535156
          0.18125462532043457 0.00911853276193142 0.46590086817741394 0.44400909543037415 0.02233714796602726 0.2288164496421814
          0.3792629837989807 0.01907990872859955 -0.32526227831840515 0.0408252477645874 0.002053830772638321 -0.49832627177238464
          0.44653356075286865 0.02809351123869419 0.22320063412189484 0.4872884154319763 0.030657589435577393 -0.10775022953748703
          0.47867894172668457 0.030115926638245583 -0.14127810299396515 0.05642922222614288 0.0035502256359905005 -0.49679285287857056
          0.3827175199985504 0.028911028057336807 0.32045507431030273 0.47159186005592346 0.03562472015619278 0.1622713804244995
          0.40019965171813965 0.030231652781367302 -0.29820510745048523 0.15718786418437958 0.013862740248441696 0.4744468331336975
          0.3549470901489258 0.03130355849862099 0.3507601022720337 0.3960162401199341 0.03492553532123566 0.3032348155975342
          0.41938531398773193 0.03698650747537613 0.2697182893753052 0.49751168489456177 0.04387664049863815 0.023600392043590546
          0.3460364043712616 0.030517704784870148 -0.3596213161945343 0.059436649084091187 0.005241847597062588 -0.4964270293712616
          0.056255318224430084 0.005674530752003193 0.49679285287857056 0.13605202734470367 0.013723705895245075 0.4809381365776062
          0.4956797659397125 0.04999971762299538 0.0424453467130661 0.490038126707077 0.049430638551712036 -0.08613510429859161
          0.10261388123035431 0.010350765660405159 -0.4892476499080658 0.34740298986434937 0.039458733052015305 0.357427179813385
          0.4328290522098541 0.049161601811647415 0.245442733168602 0.47382503747940063 0.053818006068468094 -0.1503112018108368
          0.4699140787124634 0.0533737912774086 -0.1622713804244995 0.1418749839067459 0.01611444726586342 -0.4791782796382904
          0.0560949482023716 0.007086439989507198 0.49679285287857056 0.1356641799211502 0.017138373106718063 0.4809381365776062
          0.3285870850086212 0.0415102019906044 0.3745763301849365 0.48079732060432434 0.06073882803320885 0.12306393682956696
          0.49517035484313965 0.06255456060171127 0.029887113720178604 0.294598788022995 0.03721648082137108 -0.4022766351699829
          0.07762511819601059 0.01079899538308382 0.49381953477859497 0.1855488121509552 0.025813044980168343 0.46357882022857666
          0.4694269597530365 0.06530539691448212 0.15929068624973297 0.48835432529449463 0.06793852150440216 -0.08303258568048477
          0.45495718717575073 0.06329240649938583 -0.19750447571277618 0.04041299596428871 0.006140753161162138 0.49832627177238464
          0.10500741004943848 0.01595587097108364 0.4885886311531067 0.4889254868030548 0.07429220527410507 0.07370579242706299
          0.4644552171230316 0.07057394832372665 -0.17117439210414886 0.15600723028182983 0.023705292493104935 -0.4744468331336975
          0.10479861497879028 0.01727413758635521 0.4885886311531067 0.12293006479740143 0.02026277780532837 0.48422887921333313
          0.33599188923835754 0.055382128804922104 0.36611783504486084 0.46025922894477844 0.07586533576250076 -0.18001635372638702
          0.44283726811408997 0.07299364358186722 -0.22037939727306366 0.06489582359790802 0.01153633650392294 0.4956364035606384
          0.46462035179138184 0.08259417116641998 0.1652456372976303 0.4859517812728882 0.08638619631528854 0.07992678135633469
          0.47308841347694397 0.08409950882196426 -0.13825570046901703 0.3508246839046478 0.06236505135893822 -0.3507601022720337
          0.1402580440044403 0.02675565332174301 0.4791782796382904 0.17249278724193573 0.03290475904941559 0.4681490361690521
          0.3276422619819641 0.06250110268592834 0.3724837899208069 0.47366681694984436 0.09035677462816238 0.13219459354877472
          0.489370733499527 0.09335245937108994 0.0424453467130661 0.33899572491645813 0.06466688960790634 -0.3618011772632599
          0.3183251917362213 0.06072377786040306 -0.3807646334171295 0.23160871863365173 0.04418172687292099 -0.44091424345970154
          0.2983509302139282 0.06080864742398262 0.3965968191623688 0.48206204175949097 0.09825187921524048 -0.08923420310020447
          0.4784160554409027 0.09750877320766449 -0.10775022953748703 0.3799999952316284 0.07745001465082169 -0.3155970573425293
          0.17161141335964203 0.03722912818193436 0.4681490361690521 0.37111034989356995 0.08050813525915146 -0.32526227831840515
          0.07031083106994629 0.016180839389562607 0.4947671890258789 0.27436456084251404 0.06314033269882202 0.41320380568504333
          0.4691043198108673 0.10795636475086212 -0.13522782921791077 0.13030581176280975 0.02998766303062439 -0.4817894995212555
          0.38441285490989685 0.09356760233640671 0.3057316839694977 0.47161436080932617 0.11479279398918152 0.12001046538352966
          0.4685286283493042 0.11404171586036682 -0.13219459354877472 0.46601924300193787 0.113430917263031 -0.14127810299396515
          0.3935719430446625 0.09579695761203766 -0.293128103017807 0.3148721158504486 0.07664111256599426 -0.3807646334171295
          0.0577927865087986 0.01483866572380066 0.4964270293712616 0.23373661935329437 0.060013365000486374 0.4379104673862457
          0.39233705401420593 0.10073503851890564 0.293128103017807 0.46705856919288635 0.1199202612042427 -0.13219459354877472
          0.39233705401420593 0.10073503851890564 -0.293128103017807 0.18427351117134094 0.047313395887613297 -0.4623902142047882
          0.024381622672080994 0.006260136608034372 -0.4993659555912018 0.4434370696544647 0.11981458216905594 0.19750447571277618
          0.46036311984062195 0.12438791245222092 -0.1503112018108368 0.18085047602653503 0.0488649345934391 -0.46357882022857666
          0.3730863034725189 0.10585416108369827 0.3155970573425293 0.4248836636543274 0.12055039405822754 0.23439601063728333
          0.4596650004386902 0.13041874766349792 -0.14730596542358398 0.05439380556344986 0.015432918444275856 -0.49679285287857056
          0.2648502290248871 0.0787539854645729 0.41671594977378845 0.4744604825973511 0.14108221232891083 0.07059085369110107
          0.47156667709350586 0.1402217298746109 -0.08923420310020447 0.4686410129070282 0.1393517702817917 -0.10467419028282166
          0.2748240828514099 0.08171974867582321 -0.40962615609169006 0.01809961348772049 0.005381972994655371 -0.49964332580566406
          0.3207283020019531 0.09977293759584427 0.37037646770477295 0.43371832370758057 0.13492214679718018 0.20900820195674896
          0.38678017258644104 0.12032051384449005 -0.293128103017807 0.07157858461141586 0.023257290944457054 0.4943031370639801
          0.4067395329475403 0.13215768337249756 0.2590314447879791 0.392135351896286 0.12741249799728394 -0.2828354835510254
          0.2602871358394623 0.08457241952419281 -0.41844725608825684 0.2162853479385376 0.07027536630630493 -0.44528868794441223
          0.20200501382350922 0.06845352798700333 0.4522257149219513 0.4733591079711914 0.1604074090719223 0.014163603074848652
          0.4683757424354553 0.15871869027614594 -0.07370579242706299 0.45898154377937317 0.1555352658033371 -0.12306393682956696
          0.04465395584702492 0.015131904743611813 -0.49777209758758545 0.3561555743217468 0.12570172548294067 0.3276465833187103
          0.3638225793838501 0.12840771675109863 0.3180323541164398 0.4616597592830658 0.1629384160041809 0.1015940010547638
          0.46338674426078796 0.16354794800281525 -0.09232976287603378 0.45910102128982544 0.16203534603118896 -0.11388937383890152
          0.22234313189983368 0.07847389578819275 -0.44091424345970154 0.08231295645236969 0.030220044776797295 0.49225127696990967
          0.46074020862579346 0.16915428638458252 0.09542166441679001 0.46934598684310913 0.17231377959251404 -0.004721762612462044
          0.45106661319732666 0.16560275852680206 -0.13825570046901703 0.19126597046852112 0.07296088337898254 0.45617327094078064
          0.2960106134414673 0.11291708797216415 0.386817067861557 0.46115708351135254 0.17591434717178345 -0.07992678135633469
          0.1695656180381775 0.06468299776315689 -0.46590086817741394 0.04405190423130989 0.016804169863462448 -0.49777209758758545
          0.36241912841796875 0.14349189400672913 0.31314924359321594 0.44911062717437744 0.1778154820203781 -0.12915611267089844
          0.05547729507088661 0.021965015679597855 -0.4964270293712616 0.38789108395576477 0.15924392640590668 0.2723635137081146
          0.44684073328971863 0.18344497680664062 -0.12915611267089844 0.4099213480949402 0.1682881861925125 -0.23161081969738007
          0.37127038836479187 0.1524205058813095 -0.29820510745048523 0.19467046856880188 0.07991957664489746 -0.453559547662735
          0.28248873353004456 0.12014216184616089 0.3946720063686371 0.3622986972332001 0.15408526360988617 0.3082164525985718
          0.4562890827655792 0.19405928254127502 0.06435270607471466 0.22460122406482697 0.0955226719379425 -0.436382532119751
          0.15888021886348724 0.06757159531116486 -0.4692453145980835 0.22589321434497833 0.09944245219230652 0.434837281703949
          0.33606553077697754 0.14794239401817322 0.3393714725971222 0.37241190671920776 0.16394273936748505 0.2905721068382263
          0.4551536738872528 0.20036724209785461 0.05184679478406906 0.22086423635482788 0.09722860902547836 -0.4379104673862457
          0.06603344529867172 0.029069168493151665 -0.4947671890258789 0.2927461862564087 0.13328874111175537 0.3827973008155823
          0.44175073504447937 0.20113122463226318 0.12001046538352966 0.4169068932533264 0.18981969356536865 -0.2003924399614334
          0.20951984822750092 0.09539538621902466 -0.4438481330871582 0.24763496220111847 0.11652816832065582 0.41844725608825684
          0.4470422863960266 0.21036212146282196 -0.07681781053543091 0.3884364366531372 0.1827843189239502 -0.2563338279724121
          0.37145566940307617 0.1747937649488449 -0.28542572259902954 0.1588905304670334 0.07476820796728134 -0.4681490361690521
          0.21455880999565125 0.10427673161029816 0.4394210875034332 0.4443635642528534 0.21596306562423706 -0.07681781053543091
          0.2437768131494522 0.11847683787345886 -0.42016199231147766 0.10863552242517471 0.05449550971388817 0.48500367999076843
          0.24226878583431244 0.12153079360723495 0.42016199231147766 0.29814112186431885 0.14955838024616241 0.3724837899208069
          0.44117364287376404 0.2213086634874344 0.07992678135633469 0.4447944462299347 0.22312499582767487 -0.04871486872434616
          0.3879791796207428 0.1946244090795517 -0.24818037450313568 0.16483637690544128 0.08268789201974869 -0.4647490382194519
          0.12144594639539719 0.06284407526254654 0.4809381365776062 0.3125174939632416 0.1617169827222824 0.3552188575267792
          0.43921688199043274 0.22727952897548676 0.07370579242706299 0.39224928617477417 0.20297542214393616 -0.23439601063728333
          0.3769036531448364 0.19503459334373474 -0.2643958330154419 0.3222920596599579 0.16677498817443848 -0.34396791458129883
          0.24540196359157562 0.126987025141716 -0.41671594977378845 0.13216298818588257 0.06838976591825485 -0.477342426776886
          0.06407787650823593 0.0331580825150013 -0.4947671890258789 0.030728721991181374 0.015901049599051476 -0.49880146980285645
          0.24146731197834015 0.12882323563098907 0.41844725608825684 0.43930870294570923 0.23437197506427765 0.04558101296424866
          0.4374765455722809 0.23339451849460602 -0.06435270607471466 0.42617377638816833 0.2273644655942917 -0.12915611267089844
          0.1549331694841385 0.08265712112188339 -0.4681490361690521 0.09037754684686661 0.04968547448515892 0.4892476499080658
          0.3613148331642151 0.19863452017307281 0.2828354835510254 0.413533091545105 0.22734174132347107 -0.1652456372976303
          0.32176926732063293 0.1768941432237625 -0.3393714725971222 0.09576862305402756 0.05264924839138985 -0.48791027069091797
          0.43491727113723755 0.24626480042934418 0.014163603074848652 0.39751332998275757 0.22508543729782104 -0.20327246189117432
          0.21951980888843536 0.12429951131343842 -0.4316951334476471 0.28408730030059814 0.16560837626457214 0.3766540586948395
          0.402007132768631 0.23434960842132568 -0.18294955790042877 0.046143870800733566 0.026899520307779312 -0.49713897705078125
          0.19260729849338531 0.11554720252752304 0.44671162962913513 0.4037705659866333 0.24222633242607117 0.168213352560997